
     Program PWSCF v.5.0.2 (svn rev. 9392) starts on 11Feb2015 at 18:59:53 

     This program is part of the open-source Quantum ESPRESSO suite
     for quantum simulation of materials; please cite
         "P. Giannozzi et al., J. Phys.:Condens. Matter 21 395502 (2009);
          URL http://www.quantum-espresso.org", 
     in publications or presentations arising from this work. More details at
     http://www.quantum-espresso.org/quote.php

     Parallel version (MPI), running on    20 processors
     R & G space division:  proc/nbgrp/npool/nimage =      20

     Current dimensions of program PWSCF are:
     Max number of different atomic species (ntypx) = 10
     Max number of k-points (npk) =  40000
     Max angular momentum in pseudopotentials (lmaxx) =  3
     Waiting for input...
     Reading input from standard input

     gamma-point specific algorithms are used
 XXXXXXXXXX EC SUPPORT ENABLED XXXXXXXXXX

     Subspace diagonalization in iterative solution of the eigenvalue problem:
     a serial algorithm will be used


     Parallelization info
     --------------------
     sticks:   dense  smooth     PW     G-vecs:    dense   smooth      PW
     Min         248     100     24                13304     3352     416
     Max         251     102     26                13314     3406     426
     Sum        4997    2009    497               266195    67451    8385
     Tot        2499    1005    249


     Title: 
     QMMM                                                                       


     bravais-lattice index     =            1
     lattice parameter (alat)  =      15.8600  a.u.
     unit-cell volume          =    3989.4181 (a.u.)^3
     number of atoms/cell      =            4
     number of atomic types    =            2
     number of electrons       =         8.00
     number of Kohn-Sham states=            4
     kinetic-energy cutoff     =      25.0000  Ry
     charge density cutoff     =     250.0000  Ry
     convergence threshold     =      1.0E-06
     mixing beta               =       0.7000
     number of iterations used =            8  plain     mixing
     Exchange-correlation      =  SLA  PW   PBE  PBE ( 1 4 3 4 0)
     EXX-fraction              =        0.00
     nstep                     =          100


     celldm(1)=  15.860000  celldm(2)=   0.000000  celldm(3)=   0.000000
     celldm(4)=   0.000000  celldm(5)=   0.000000  celldm(6)=   0.000000

     crystal axes: (cart. coord. in units of alat)
               a(1) = (   1.000000   0.000000   0.000000 )  
               a(2) = (   0.000000   1.000000   0.000000 )  
               a(3) = (   0.000000   0.000000   1.000000 )  

     reciprocal axes: (cart. coord. in units 2 pi/alat)
               b(1) = (  1.000000  0.000000  0.000000 )  
               b(2) = (  0.000000  1.000000  0.000000 )  
               b(3) = (  0.000000  0.000000  1.000000 )  


     PseudoPot. # 1 for N  read from file:
     pseudo/N.pbe-van_ak.UPF
     MD5 check sum: 1179dd96bccda41bd78de041b702c012
     Pseudo is Ultrasoft, Zval =  5.0
     Generated by new atomic code, or converted to UPF format
     Using radial grid of  729 points,  4 beta functions with: 
                l(1) =   0
                l(2) =   0
                l(3) =   1
                l(4) =   1
     Q(r) pseudized with  8 coefficients,  rinner =    0.800   0.800   0.800


     PseudoPot. # 2 for H  read from file:
     pseudo/H.pbe-van_ak.UPF
     MD5 check sum: 077eb6d537518a38cb46c6de387227b7
     Pseudo is Ultrasoft, Zval =  1.0
     Generated by new atomic code, or converted to UPF format
     Using radial grid of  615 points,  1 beta functions with: 
                l(1) =   0
     Q(r) pseudized with  8 coefficients,  rinner =    0.800

     atomic species   valence    mass     pseudopotential
        N              5.00    14.00070     N ( 1.00)
        H              1.00     1.00800     H ( 1.00)

     No symmetry found



   Cartesian axes

     site n.     atom                  positions (alat units)
         1           N   tau(   1) = (   0.5303503   0.5242352   0.4900149  )
         2           H   tau(   2) = (   0.4687853   0.5197909   0.5963531  )
         3           H   tau(   3) = (   0.5665959   0.4128653   0.4934869  )
         4           H   tau(   4) = (   0.4342686   0.5431086   0.4201451  )

     number of k points=     1
                       cart. coord. in units 2pi/alat
        k(    1) = (   0.0000000   0.0000000   0.0000000), wk =   2.0000000

     Dense  grid:   133098 G-vectors     FFT dimensions: (  80,  80,  80)

     Smooth grid:    33726 G-vectors     FFT dimensions: (  54,  54,  54)

     Largest allocated arrays     est. size (Mb)     dimensions
        Kohn-Sham Wavefunctions         0.01 Mb     (    213,    4)
        NL pseudopotentials             0.04 Mb     (    213,   11)
        Each V/rho on FFT grid          0.39 Mb     (  25600)
        Each G-vector array             0.05 Mb     (   6657)
        G-vector shells                 0.01 Mb     (   1118)
     Largest temporary arrays     est. size (Mb)     dimensions
        Auxiliary wavefunctions         0.03 Mb     (    213,   16)
        Each subspace H/S matrix        0.00 Mb     (  16,  16)
        Each <psi_i|beta_j> matrix      0.00 Mb     (     11,    4)
        Arrays for rho mixing           3.13 Mb     (  25600,   8)
 ****** END OF ADD_ESF COMPUTATION ******

     Initial potential from superposition of free atoms
     Check: negative starting charge=   -0.000556

     starting charge    7.99996, renormalised to    8.00000

     negative rho (up, down):  0.556E-03 0.000E+00
     Starting wfc are    7 randomized atomic wfcs

     total cpu time spent up to now is        1.0 secs

     per-process dynamical memory:    10.4 Mb

     Self-consistent Calculation

     iteration #  1     ecut=    25.00 Ry     beta=0.70
     Davidson diagonalization with overlap
     ethr =  1.00E-02,  avg # of iterations =  2.0

     negative rho (up, down):  0.235E-02 0.000E+00

     total cpu time spent up to now is        1.2 secs

     total energy              =     -23.77186789 Ry
     Harris-Foulkes estimate   =     -24.32041225 Ry
     estimated scf accuracy    <       0.75888162 Ry

     iteration #  2     ecut=    25.00 Ry     beta=0.70
     Davidson diagonalization with overlap
     ethr =  9.49E-03,  avg # of iterations =  2.0

     negative rho (up, down):  0.350E-02 0.000E+00

     total cpu time spent up to now is        1.4 secs

     total energy              =     -23.95227310 Ry
     Harris-Foulkes estimate   =     -24.25143774 Ry
     estimated scf accuracy    <       0.61349949 Ry

     iteration #  3     ecut=    25.00 Ry     beta=0.70
     Davidson diagonalization with overlap
     ethr =  7.67E-03,  avg # of iterations =  2.0

     negative rho (up, down):  0.367E-02 0.000E+00

     total cpu time spent up to now is        1.6 secs

     total energy              =     -24.07513101 Ry
     Harris-Foulkes estimate   =     -24.07849367 Ry
     estimated scf accuracy    <       0.00798594 Ry

     iteration #  4     ecut=    25.00 Ry     beta=0.70
     Davidson diagonalization with overlap
     ethr =  9.98E-05,  avg # of iterations =  2.0

     negative rho (up, down):  0.355E-02 0.000E+00

     total cpu time spent up to now is        1.7 secs

     total energy              =     -24.07671565 Ry
     Harris-Foulkes estimate   =     -24.07742478 Ry
     estimated scf accuracy    <       0.00167050 Ry

     iteration #  5     ecut=    25.00 Ry     beta=0.70
     Davidson diagonalization with overlap
     ethr =  2.09E-05,  avg # of iterations =  1.0

     negative rho (up, down):  0.360E-02 0.000E+00

     total cpu time spent up to now is        1.9 secs

     total energy              =     -24.07675393 Ry
     Harris-Foulkes estimate   =     -24.07680518 Ry
     estimated scf accuracy    <       0.00014023 Ry

     iteration #  6     ecut=    25.00 Ry     beta=0.70
     Davidson diagonalization with overlap
     ethr =  1.75E-06,  avg # of iterations =  2.0

     negative rho (up, down):  0.362E-02 0.000E+00

     total cpu time spent up to now is        2.1 secs

     total energy              =     -24.07676880 Ry
     Harris-Foulkes estimate   =     -24.07677098 Ry
     estimated scf accuracy    <       0.00001237 Ry

     iteration #  7     ecut=    25.00 Ry     beta=0.70
     Davidson diagonalization with overlap
     ethr =  1.55E-07,  avg # of iterations =  2.0

     negative rho (up, down):  0.364E-02 0.000E+00

     total cpu time spent up to now is        2.2 secs

     total energy              =     -24.07676794 Ry
     Harris-Foulkes estimate   =     -24.07676978 Ry
     estimated scf accuracy    <       0.00000453 Ry

     iteration #  8     ecut=    25.00 Ry     beta=0.70
     Davidson diagonalization with overlap
     ethr =  5.67E-08,  avg # of iterations =  2.0

     negative rho (up, down):  0.364E-02 0.000E+00

     total cpu time spent up to now is        2.4 secs

     End of self-consistent calculation

          k = 0.0000 0.0000 0.0000 (  4193 PWs)   bands (ev):

   -22.2766 -12.5957 -11.2109  -7.6426

!    total energy              =     -24.07676842 Ry
     Harris-Foulkes estimate   =     -24.07676864 Ry
     estimated scf accuracy    <       0.00000034 Ry

     convergence has been achieved in   8 iterations

     Forces acting on atoms (Ry/au):

     atom    1 type  1   force =     0.28538736    0.25398002   -0.02477812
     atom    2 type  2   force =     0.05559881    0.05394727    0.00537354
     atom    3 type  2   force =     0.05728138   -0.04986746   -0.05634783
     atom    4 type  2   force =     0.04302266    0.00594486   -0.04810971

     Total force =     0.407112     Total SCF correction =     0.000778

     Molecular Dynamics Calculation
     mass N                =    14.00
     mass H                =     1.01
     Time step             =    20.00 a.u.,  0.9676 femto-seconds

     Entering Dynamics:    iteration =     1
                           time      =   0.0010 pico-seconds


ATOMIC_POSITIONS (angstrom)
N        4.450454840   4.400081046   4.113212072
H        3.937792714   4.366889151   5.006506590
H        4.758886540   3.457530026   4.136066485
H        3.646653980   4.557059427   3.521475491


     kinetic energy (Ekin) =     0.00000000 Ry
     temperature           =     0.00000000 K 
     Ekin + Etot (const)   =   -24.07676842 Ry

     Linear momentum :    0.0000000000    0.0000000000    0.0000000000

     Writing output data file ms2.save
 ****** END OF FORCE_ESF COMPUTATION ******
     Check: negative starting charge=   -0.000556
     NEW-OLD atomic charge density approx. for the potential
     Check: negative starting charge=   -0.000557

     negative rho (up, down):  0.362E-02 0.000E+00
 ****** END OF ADD_ESF COMPUTATION ******

     total cpu time spent up to now is        5.4 secs

     per-process dynamical memory:    13.6 Mb

     Self-consistent Calculation

     iteration #  1     ecut=    25.00 Ry     beta=0.70
     Davidson diagonalization with overlap
     ethr =  1.00E-06,  avg # of iterations =  4.0

     negative rho (up, down):  0.362E-02 0.000E+00

     total cpu time spent up to now is        5.5 secs

     total energy              =     -24.06536445 Ry
     Harris-Foulkes estimate   =     -24.06546862 Ry
     estimated scf accuracy    <       0.00017939 Ry

     iteration #  2     ecut=    25.00 Ry     beta=0.70
     Davidson diagonalization with overlap
     ethr =  2.24E-06,  avg # of iterations =  2.0

     negative rho (up, down):  0.364E-02 0.000E+00

     total cpu time spent up to now is        5.7 secs

     total energy              =     -24.06539446 Ry
     Harris-Foulkes estimate   =     -24.06545131 Ry
     estimated scf accuracy    <       0.00011020 Ry

     iteration #  3     ecut=    25.00 Ry     beta=0.70
     Davidson diagonalization with overlap
     ethr =  1.38E-06,  avg # of iterations =  2.0

     negative rho (up, down):  0.365E-02 0.000E+00

     total cpu time spent up to now is        5.9 secs

     total energy              =     -24.06541948 Ry
     Harris-Foulkes estimate   =     -24.06542001 Ry
     estimated scf accuracy    <       0.00000208 Ry

     iteration #  4     ecut=    25.00 Ry     beta=0.70
     Davidson diagonalization with overlap
     ethr =  2.60E-08,  avg # of iterations =  2.0

     negative rho (up, down):  0.364E-02 0.000E+00

     total cpu time spent up to now is        6.0 secs

     End of self-consistent calculation

          k = 0.0000 0.0000 0.0000 (  4193 PWs)   bands (ev):

   -22.1852 -12.4885 -11.1891  -7.5864

!    total energy              =     -24.06541980 Ry
     Harris-Foulkes estimate   =     -24.06541986 Ry
     estimated scf accuracy    <       0.00000008 Ry

     convergence has been achieved in   4 iterations

     Forces acting on atoms (Ry/au):

     atom    1 type  1   force =     0.28492945    0.21242492   -0.03088125
     atom    2 type  2   force =     0.05579988    0.04949493    0.00269514
     atom    3 type  2   force =     0.05003400   -0.03388845   -0.05580687
     atom    4 type  2   force =     0.04755177    0.00230024   -0.04281947

     Total force =     0.379077     Total SCF correction =     0.000473

     Entering Dynamics:    iteration =     2
                           time      =   0.0019 pico-seconds


ATOMIC_POSITIONS (angstrom)
N        4.449351073   4.403829545   4.116507154
H        3.942819379   4.378505343   5.013850639
H        4.764544245   3.436551139   4.123634022
H        3.646154033   4.552631599   3.509109199


     kinetic energy (Ekin) =     0.00250279 Ry
     temperature           =    87.81310902 K 
     Ekin + Etot (const)   =   -24.06291701 Ry
     Message from routine dynamics:
     Total linear momentum <> 0

     Linear momentum :   -0.0140842542    0.1047457948    0.0774829602

     Writing output data file ms2.save
 ****** END OF FORCE_ESF COMPUTATION ******
     Check: negative starting charge=   -0.000557
     NEW-OLD atomic charge density approx. for the potential
     Check: negative starting charge=   -0.000554

     negative rho (up, down):  0.359E-02 0.000E+00
 ****** END OF ADD_ESF COMPUTATION ******

     total cpu time spent up to now is        9.0 secs

     per-process dynamical memory:    13.6 Mb

     Self-consistent Calculation

     iteration #  1     ecut=    25.00 Ry     beta=0.70
     Davidson diagonalization with overlap
     ethr =  1.00E-06,  avg # of iterations =  4.0

     negative rho (up, down):  0.355E-02 0.000E+00

     total cpu time spent up to now is        9.2 secs

     total energy              =     -24.07096431 Ry
     Harris-Foulkes estimate   =     -24.07152596 Ry
     estimated scf accuracy    <       0.00086966 Ry

     iteration #  2     ecut=    25.00 Ry     beta=0.70
     Davidson diagonalization with overlap
     ethr =  1.09E-05,  avg # of iterations =  2.0

     negative rho (up, down):  0.359E-02 0.000E+00

     total cpu time spent up to now is        9.4 secs

     total energy              =     -24.07115828 Ry
     Harris-Foulkes estimate   =     -24.07146333 Ry
     estimated scf accuracy    <       0.00060682 Ry

     iteration #  3     ecut=    25.00 Ry     beta=0.70
     Davidson diagonalization with overlap
     ethr =  7.59E-06,  avg # of iterations =  2.0

     negative rho (up, down):  0.360E-02 0.000E+00

     total cpu time spent up to now is        9.5 secs

     total energy              =     -24.07128772 Ry
     Harris-Foulkes estimate   =     -24.07128774 Ry
     estimated scf accuracy    <       0.00000536 Ry

     iteration #  4     ecut=    25.00 Ry     beta=0.70
     Davidson diagonalization with overlap
     ethr =  6.70E-08,  avg # of iterations =  2.0

     negative rho (up, down):  0.360E-02 0.000E+00

     total cpu time spent up to now is        9.6 secs

     End of self-consistent calculation

          k = 0.0000 0.0000 0.0000 (  4193 PWs)   bands (ev):

   -22.0237 -12.2791 -11.2160  -7.5745

!    total energy              =     -24.07128901 Ry
     Harris-Foulkes estimate   =     -24.07128919 Ry
     estimated scf accuracy    <       0.00000040 Ry

     convergence has been achieved in   4 iterations

     Forces acting on atoms (Ry/au):

     atom    1 type  1   force =     0.28751196    0.17151916   -0.04261036
     atom    2 type  2   force =     0.05703235    0.04581981   -0.00403098
     atom    3 type  2   force =     0.03506518    0.01034053   -0.05078331
     atom    4 type  2   force =     0.05939282    0.00165287   -0.02885640

     Total force =     0.357134     Total SCF correction =     0.001066

     Entering Dynamics:    iteration =     3
                           time      =   0.0029 pico-seconds


ATOMIC_POSITIONS (angstrom)
N        4.448130985   4.411652718   4.123524489
H        3.947348729   4.396694827   5.027790012
H        4.766759673   3.412799314   4.108976669
H        3.642306495   4.545320196   3.493014599


     kinetic energy (Ekin) =     0.00782671 Ry
     temperature           =   274.60835847 K 
     Ekin + Etot (const)   =   -24.06346231 Ry
     Message from routine dynamics:
     Total linear momentum <> 0

     Linear momentum :   -0.0384485642    0.2621393773    0.2207288373

     Writing output data file ms2.save
 ****** END OF FORCE_ESF COMPUTATION ******
     Check: negative starting charge=   -0.000554
     NEW-OLD atomic charge density approx. for the potential
     Check: negative starting charge=   -0.000544

     negative rho (up, down):  0.356E-02 0.000E+00
 ****** END OF ADD_ESF COMPUTATION ******

     total cpu time spent up to now is       12.7 secs

     per-process dynamical memory:    13.6 Mb

     Self-consistent Calculation

     iteration #  1     ecut=    25.00 Ry     beta=0.70
     Davidson diagonalization with overlap
     ethr =  1.00E-06,  avg # of iterations =  4.0

     negative rho (up, down):  0.349E-02 0.000E+00

     total cpu time spent up to now is       12.8 secs

     total energy              =     -24.07582783 Ry
     Harris-Foulkes estimate   =     -24.07650905 Ry
     estimated scf accuracy    <       0.00109505 Ry

     iteration #  2     ecut=    25.00 Ry     beta=0.70
     Davidson diagonalization with overlap
     ethr =  1.37E-05,  avg # of iterations =  2.0

     negative rho (up, down):  0.355E-02 0.000E+00

     total cpu time spent up to now is       13.0 secs

     total energy              =     -24.07606568 Ry
     Harris-Foulkes estimate   =     -24.07645849 Ry
     estimated scf accuracy    <       0.00078812 Ry

     iteration #  3     ecut=    25.00 Ry     beta=0.70
     Davidson diagonalization with overlap
     ethr =  9.85E-06,  avg # of iterations =  2.0

     negative rho (up, down):  0.356E-02 0.000E+00

     total cpu time spent up to now is       13.2 secs

     total energy              =     -24.07623433 Ry
     Harris-Foulkes estimate   =     -24.07623383 Ry
     estimated scf accuracy    <       0.00000768 Ry

     iteration #  4     ecut=    25.00 Ry     beta=0.70
     Davidson diagonalization with overlap
     ethr =  9.60E-08,  avg # of iterations =  2.0

     negative rho (up, down):  0.356E-02 0.000E+00

     total cpu time spent up to now is       13.3 secs

     End of self-consistent calculation

          k = 0.0000 0.0000 0.0000 (  4193 PWs)   bands (ev):

   -21.8418 -12.0181 -11.2754  -7.5612

!    total energy              =     -24.07623605 Ry
     Harris-Foulkes estimate   =     -24.07623626 Ry
     estimated scf accuracy    <       0.00000055 Ry

     convergence has been achieved in   4 iterations

     Forces acting on atoms (Ry/au):

     atom    1 type  1   force =     0.28815022    0.13192034   -0.06002954
     atom    2 type  2   force =     0.05776811    0.04073574   -0.01239488
     atom    3 type  2   force =     0.02183727    0.05268153   -0.04199619
     atom    4 type  2   force =     0.07245157    0.00261763   -0.01108076

     Total force =     0.345806     Total SCF correction =     0.001167

     Entering Dynamics:    iteration =     4
                           time      =   0.0039 pico-seconds


ATOMIC_POSITIONS (angstrom)
N        4.446358117   4.420227329   4.133389380
H        3.954026680   4.419133966   5.044663918
H        4.763851004   3.396809531   4.091861929
H        3.642056516   4.534123986   3.477608782


     kinetic energy (Ekin) =     0.01126707 Ry
     temperature           =   395.31732860 K 
     Ekin + Etot (const)   =   -24.06496897 Ry
     Message from routine dynamics:
     Total linear momentum <> 0

     Linear momentum :   -0.0577582097    0.3129435730    0.3321596798

     Writing output data file ms2.save
 ****** END OF FORCE_ESF COMPUTATION ******
     Check: negative starting charge=   -0.000544
     NEW-OLD atomic charge density approx. for the potential
     Check: negative starting charge=   -0.000533

     negative rho (up, down):  0.354E-02 0.000E+00
 ****** END OF ADD_ESF COMPUTATION ******

     total cpu time spent up to now is       16.3 secs

     per-process dynamical memory:    13.6 Mb

     Self-consistent Calculation

     iteration #  1     ecut=    25.00 Ry     beta=0.70
     Davidson diagonalization with overlap
     ethr =  1.00E-06,  avg # of iterations =  4.0

     negative rho (up, down):  0.347E-02 0.000E+00

     total cpu time spent up to now is       16.5 secs

     total energy              =     -24.08027296 Ry
     Harris-Foulkes estimate   =     -24.08061525 Ry
     estimated scf accuracy    <       0.00063707 Ry

     iteration #  2     ecut=    25.00 Ry     beta=0.70
     Davidson diagonalization with overlap
     ethr =  7.96E-06,  avg # of iterations =  2.0

     negative rho (up, down):  0.352E-02 0.000E+00

     total cpu time spent up to now is       16.6 secs

     total energy              =     -24.08040033 Ry
     Harris-Foulkes estimate   =     -24.08062046 Ry
     estimated scf accuracy    <       0.00044585 Ry

     iteration #  3     ecut=    25.00 Ry     beta=0.70
     Davidson diagonalization with overlap
     ethr =  5.57E-06,  avg # of iterations =  2.0

     negative rho (up, down):  0.353E-02 0.000E+00

     total cpu time spent up to now is       16.8 secs

     total energy              =     -24.08049881 Ry
     Harris-Foulkes estimate   =     -24.08049784 Ry
     estimated scf accuracy    <       0.00000686 Ry

     iteration #  4     ecut=    25.00 Ry     beta=0.70
     Davidson diagonalization with overlap
     ethr =  8.57E-08,  avg # of iterations =  2.0

     negative rho (up, down):  0.353E-02 0.000E+00

     total cpu time spent up to now is       16.9 secs

     End of self-consistent calculation

          k = 0.0000 0.0000 0.0000 (  4193 PWs)   bands (ev):

   -21.7050 -11.7750 -11.3799  -7.5506

!    total energy              =     -24.08049995 Ry
     Harris-Foulkes estimate   =     -24.08050007 Ry
     estimated scf accuracy    <       0.00000035 Ry

     convergence has been achieved in   4 iterations

     Forces acting on atoms (Ry/au):

     atom    1 type  1   force =     0.28816458    0.10493648   -0.07947332
     atom    2 type  2   force =     0.05711160    0.03521062   -0.01986274
     atom    3 type  2   force =     0.01537143    0.07974080   -0.03070789
     atom    4 type  2   force =     0.08145592    0.00643704    0.00552867

     Total force =     0.345699     Total SCF correction =     0.000858

     Entering Dynamics:    iteration =     5
                           time      =   0.0048 pico-seconds


ATOMIC_POSITIONS (angstrom)
N        4.443988432   4.426862859   4.144723567
H        3.962684730   4.442209109   5.061637725
H        4.754051820   3.393346622   4.073966114
H        3.647641878   4.517827917   3.465964421


     kinetic energy (Ekin) =     0.01195191 Ry
     temperature           =   419.34547827 K 
     Ekin + Etot (const)   =   -24.06854804 Ry
     Message from routine dynamics:
     Total linear momentum <> 0

     Linear momentum :   -0.0779129088    0.2613020727    0.3964396689

     Writing output data file ms2.save
 ****** END OF FORCE_ESF COMPUTATION ******
     Check: negative starting charge=   -0.000533
     NEW-OLD atomic charge density approx. for the potential
     Check: negative starting charge=   -0.000528

     negative rho (up, down):  0.353E-02 0.000E+00
 ****** END OF ADD_ESF COMPUTATION ******

     total cpu time spent up to now is       19.9 secs

     per-process dynamical memory:    13.6 Mb

     Self-consistent Calculation

     iteration #  1     ecut=    25.00 Ry     beta=0.70
     Davidson diagonalization with overlap
     ethr =  1.00E-06,  avg # of iterations =  4.0

     negative rho (up, down):  0.349E-02 0.000E+00

     total cpu time spent up to now is       20.1 secs

     total energy              =     -24.08856660 Ry
     Harris-Foulkes estimate   =     -24.08856986 Ry
     estimated scf accuracy    <       0.00016926 Ry

     iteration #  2     ecut=    25.00 Ry     beta=0.70
     Davidson diagonalization with overlap
     ethr =  2.12E-06,  avg # of iterations =  2.0

     negative rho (up, down):  0.352E-02 0.000E+00

     total cpu time spent up to now is       20.3 secs

     total energy              =     -24.08858777 Ry
     Harris-Foulkes estimate   =     -24.08861854 Ry
     estimated scf accuracy    <       0.00006968 Ry

     iteration #  3     ecut=    25.00 Ry     beta=0.70
     Davidson diagonalization with overlap
     ethr =  8.71E-07,  avg # of iterations =  2.0

     negative rho (up, down):  0.352E-02 0.000E+00

     total cpu time spent up to now is       20.5 secs

     total energy              =     -24.08860633 Ry
     Harris-Foulkes estimate   =     -24.08860711 Ry
     estimated scf accuracy    <       0.00000824 Ry

     iteration #  4     ecut=    25.00 Ry     beta=0.70
     Davidson diagonalization with overlap
     ethr =  1.03E-07,  avg # of iterations =  2.0

     negative rho (up, down):  0.353E-02 0.000E+00

     total cpu time spent up to now is       20.6 secs

     End of self-consistent calculation

          k = 0.0000 0.0000 0.0000 (  4193 PWs)   bands (ev):

   -21.6563 -11.6071 -11.5334  -7.5554

!    total energy              =     -24.08860753 Ry
     Harris-Foulkes estimate   =     -24.08860755 Ry
     estimated scf accuracy    <       0.00000007 Ry

     convergence has been achieved in   4 iterations

     Forces acting on atoms (Ry/au):

     atom    1 type  1   force =     0.29011435    0.09236736   -0.12023212
     atom    2 type  2   force =     0.05500160    0.03004084   -0.02811241
     atom    3 type  2   force =     0.01646913    0.08882075   -0.02178960
     atom    4 type  2   force =     0.08334207    0.01335102    0.01406451

     Total force =     0.357532     Total SCF correction =     0.000587

     Entering Dynamics:    iteration =     6
                           time      =   0.0058 pico-seconds


ATOMIC_POSITIONS (angstrom)
N        4.440952434   4.429879049   4.156120473
H        3.972721797   4.463140353   5.076093905
H        4.737367914   3.403246247   4.056719455
H        3.659430862   4.496744166   3.459527271


     kinetic energy (Ekin) =     0.01210565 Ry
     temperature           =   424.73972036 K 
     Ekin + Etot (const)   =   -24.07650188 Ry
     Message from routine dynamics:
     Total linear momentum <> 0

     Linear momentum :   -0.1013304751    0.1413249368    0.4079608485

     Writing output data file ms2.save
 ****** END OF FORCE_ESF COMPUTATION ******
     Check: negative starting charge=   -0.000528
     NEW-OLD atomic charge density approx. for the potential
     Check: negative starting charge=   -0.000528

     negative rho (up, down):  0.355E-02 0.000E+00
 ****** END OF ADD_ESF COMPUTATION ******

     total cpu time spent up to now is       23.6 secs

     per-process dynamical memory:    13.6 Mb

     Self-consistent Calculation

     iteration #  1     ecut=    25.00 Ry     beta=0.70
     Davidson diagonalization with overlap
     ethr =  1.00E-06,  avg # of iterations =  4.0

     negative rho (up, down):  0.352E-02 0.000E+00

     total cpu time spent up to now is       23.8 secs

     total energy              =     -24.10315177 Ry
     Harris-Foulkes estimate   =     -24.10324794 Ry
     estimated scf accuracy    <       0.00032502 Ry

     iteration #  2     ecut=    25.00 Ry     beta=0.70
     Davidson diagonalization with overlap
     ethr =  4.06E-06,  avg # of iterations =  2.0

     negative rho (up, down):  0.352E-02 0.000E+00

     total cpu time spent up to now is       23.9 secs

     total energy              =     -24.10320758 Ry
     Harris-Foulkes estimate   =     -24.10323206 Ry
     estimated scf accuracy    <       0.00005672 Ry

     iteration #  3     ecut=    25.00 Ry     beta=0.70
     Davidson diagonalization with overlap
     ethr =  7.09E-07,  avg # of iterations =  2.0

     negative rho (up, down):  0.353E-02 0.000E+00

     total cpu time spent up to now is       24.1 secs

     total energy              =     -24.10322184 Ry
     Harris-Foulkes estimate   =     -24.10322663 Ry
     estimated scf accuracy    <       0.00001338 Ry

     iteration #  4     ecut=    25.00 Ry     beta=0.70
     Davidson diagonalization with overlap
     ethr =  1.67E-07,  avg # of iterations =  2.0

     negative rho (up, down):  0.353E-02 0.000E+00

     total cpu time spent up to now is       24.2 secs

     End of self-consistent calculation

          k = 0.0000 0.0000 0.0000 (  4193 PWs)   bands (ev):

   -21.7114 -11.7533 -11.5154  -7.5753

!    total energy              =     -24.10322467 Ry
     Harris-Foulkes estimate   =     -24.10322481 Ry
     estimated scf accuracy    <       0.00000069 Ry

     convergence has been achieved in   4 iterations

     Forces acting on atoms (Ry/au):

     atom    1 type  1   force =     0.32176616    0.07622677   -0.13153659
     atom    2 type  2   force =     0.05569584    0.02327679   -0.02968789
     atom    3 type  2   force =     0.02876250    0.07592923   -0.01066255
     atom    4 type  2   force =     0.08111048    0.02025125    0.01859481

     Total force =     0.381067     Total SCF correction =     0.000728

     Entering Dynamics:    iteration =     7
                           time      =   0.0068 pico-seconds


ATOMIC_POSITIONS (angstrom)
N        4.437229474   4.428764026   4.165978814
H        3.983820444   4.480310824   5.087559449
H        4.715980182   3.423038055   4.042278215
H        3.676098927   4.472219552   3.459206389


     kinetic energy (Ekin) =     0.01305660 Ry
     temperature           =   458.10473030 K 
     Ekin + Etot (const)   =   -24.09016807 Ry
     Message from routine dynamics:
     Total linear momentum <> 0

     Linear momentum :   -0.1240581766   -0.0083456475    0.3657090639

     Writing output data file ms2.save
 ****** END OF FORCE_ESF COMPUTATION ******
     Check: negative starting charge=   -0.000528
     NEW-OLD atomic charge density approx. for the potential
     Check: negative starting charge=   -0.000537

     negative rho (up, down):  0.358E-02 0.000E+00
 ****** END OF ADD_ESF COMPUTATION ******

     total cpu time spent up to now is       27.2 secs

     per-process dynamical memory:    13.6 Mb

     Self-consistent Calculation

     iteration #  1     ecut=    25.00 Ry     beta=0.70
     Davidson diagonalization with overlap
     ethr =  1.00E-06,  avg # of iterations =  4.0

     negative rho (up, down):  0.358E-02 0.000E+00

     total cpu time spent up to now is       27.4 secs

     total energy              =     -24.11323681 Ry
     Harris-Foulkes estimate   =     -24.11362525 Ry
     estimated scf accuracy    <       0.00075384 Ry

     iteration #  2     ecut=    25.00 Ry     beta=0.70
     Davidson diagonalization with overlap
     ethr =  9.42E-06,  avg # of iterations =  2.0

     negative rho (up, down):  0.356E-02 0.000E+00

     total cpu time spent up to now is       27.6 secs

     total energy              =     -24.11338625 Ry
     Harris-Foulkes estimate   =     -24.11362896 Ry
     estimated scf accuracy    <       0.00049000 Ry

     iteration #  3     ecut=    25.00 Ry     beta=0.70
     Davidson diagonalization with overlap
     ethr =  6.13E-06,  avg # of iterations =  2.0

     negative rho (up, down):  0.356E-02 0.000E+00

     total cpu time spent up to now is       27.7 secs

     total energy              =     -24.11349606 Ry
     Harris-Foulkes estimate   =     -24.11349504 Ry
     estimated scf accuracy    <       0.00000908 Ry

     iteration #  4     ecut=    25.00 Ry     beta=0.70
     Davidson diagonalization with overlap
     ethr =  1.14E-07,  avg # of iterations =  2.0

     negative rho (up, down):  0.356E-02 0.000E+00

     total cpu time spent up to now is       27.9 secs

     End of self-consistent calculation

          k = 0.0000 0.0000 0.0000 (  4193 PWs)   bands (ev):

   -21.8482 -12.0012 -11.4769  -7.5875

!    total energy              =     -24.11349745 Ry
     Harris-Foulkes estimate   =     -24.11349755 Ry
     estimated scf accuracy    <       0.00000036 Ry

     convergence has been achieved in   4 iterations

     Forces acting on atoms (Ry/au):

     atom    1 type  1   force =     0.32899530    0.09348565   -0.13685678
     atom    2 type  2   force =     0.05149669    0.02003265   -0.02891328
     atom    3 type  2   force =     0.04334402    0.04882662   -0.00203120
     atom    4 type  2   force =     0.06762019    0.03128942    0.01573371

     Total force =     0.386862     Total SCF correction =     0.000644

     Entering Dynamics:    iteration =     8
                           time      =   0.0077 pico-seconds


ATOMIC_POSITIONS (angstrom)
N        4.433504959   4.423850621   4.173482099
H        3.993685611   4.493467390   5.095095105
H        4.692192038   3.446946485   4.031523667
H        3.693595042   4.448336120   3.463084841


     kinetic energy (Ekin) =     0.01369002 Ry
     temperature           =   480.32914726 K 
     Ekin + Etot (const)   =   -24.09980742 Ry
     Message from routine dynamics:
     Total linear momentum <> 0

     Linear momentum :   -0.1317959788   -0.1506922065    0.2870164824

     Writing output data file ms2.save
 ****** END OF FORCE_ESF COMPUTATION ******
     Check: negative starting charge=   -0.000537
     NEW-OLD atomic charge density approx. for the potential
     Check: negative starting charge=   -0.000550

     negative rho (up, down):  0.363E-02 0.000E+00
 ****** END OF ADD_ESF COMPUTATION ******

     total cpu time spent up to now is       30.9 secs

     per-process dynamical memory:    13.6 Mb

     Self-consistent Calculation

     iteration #  1     ecut=    25.00 Ry     beta=0.70
     Davidson diagonalization with overlap
     ethr =  1.00E-06,  avg # of iterations =  4.0

     negative rho (up, down):  0.364E-02 0.000E+00

     total cpu time spent up to now is       31.3 secs

     total energy              =     -24.12140272 Ry
     Harris-Foulkes estimate   =     -24.12210736 Ry
     estimated scf accuracy    <       0.00119944 Ry

     iteration #  2     ecut=    25.00 Ry     beta=0.70
     Davidson diagonalization with overlap
     ethr =  1.50E-05,  avg # of iterations =  2.0

     negative rho (up, down):  0.361E-02 0.000E+00

     total cpu time spent up to now is       31.6 secs

     total energy              =     -24.12165611 Ry
     Harris-Foulkes estimate   =     -24.12203644 Ry
     estimated scf accuracy    <       0.00075311 Ry

     iteration #  3     ecut=    25.00 Ry     beta=0.70
     Davidson diagonalization with overlap
     ethr =  9.41E-06,  avg # of iterations =  2.0

     negative rho (up, down):  0.360E-02 0.000E+00

     total cpu time spent up to now is       31.8 secs

     total energy              =     -24.12182324 Ry
     Harris-Foulkes estimate   =     -24.12182303 Ry
     estimated scf accuracy    <       0.00001117 Ry

     iteration #  4     ecut=    25.00 Ry     beta=0.70
     Davidson diagonalization with overlap
     ethr =  1.40E-07,  avg # of iterations =  2.0

     negative rho (up, down):  0.361E-02 0.000E+00

     total cpu time spent up to now is       31.9 secs

     End of self-consistent calculation

          k = 0.0000 0.0000 0.0000 (  4193 PWs)   bands (ev):

   -22.0413 -12.2545 -11.4841  -7.6016

!    total energy              =     -24.12182526 Ry
     Harris-Foulkes estimate   =     -24.12182535 Ry
     estimated scf accuracy    <       0.00000047 Ry

     convergence has been achieved in   4 iterations

     Forces acting on atoms (Ry/au):

     atom    1 type  1   force =     0.33752408    0.12484346   -0.13358920
     atom    2 type  2   force =     0.04727881    0.01780145   -0.02622384
     atom    3 type  2   force =     0.06209555    0.00593831    0.00284720
     atom    4 type  2   force =     0.04890902    0.04230556    0.00615197

     Total force =     0.398388     Total SCF correction =     0.000757

     Entering Dynamics:    iteration =     9
                           time      =   0.0087 pico-seconds


ATOMIC_POSITIONS (angstrom)
N        4.430041151   4.416922904   4.178324699
H        4.002238579   4.502948724   5.099107945
H        4.671251813   3.464897182   4.025129949
H        3.707917902   4.428575608   3.468366468


     kinetic energy (Ekin) =     0.01158111 Ry
     temperature           =   406.33576602 K 
     Ekin + Etot (const)   =   -24.11024414 Ry
     Message from routine dynamics:
     Total linear momentum <> 0

     Linear momentum :   -0.1263675330   -0.2423386428    0.1920131800

     Writing output data file ms2.save
 ****** END OF FORCE_ESF COMPUTATION ******
     Check: negative starting charge=   -0.000550
     NEW-OLD atomic charge density approx. for the potential
     Check: negative starting charge=   -0.000553

     negative rho (up, down):  0.367E-02 0.000E+00
 ****** END OF ADD_ESF COMPUTATION ******

     total cpu time spent up to now is       34.9 secs

     per-process dynamical memory:    15.3 Mb

     Self-consistent Calculation

     iteration #  1     ecut=    25.00 Ry     beta=0.70
     Davidson diagonalization with overlap
     ethr =  1.00E-06,  avg # of iterations =  4.0

     negative rho (up, down):  0.368E-02 0.000E+00

     total cpu time spent up to now is       35.1 secs

     total energy              =     -24.12699862 Ry
     Harris-Foulkes estimate   =     -24.12762507 Ry
     estimated scf accuracy    <       0.00102087 Ry

     iteration #  2     ecut=    25.00 Ry     beta=0.70
     Davidson diagonalization with overlap
     ethr =  1.28E-05,  avg # of iterations =  2.0

     negative rho (up, down):  0.365E-02 0.000E+00

     total cpu time spent up to now is       35.3 secs

     total energy              =     -24.12722178 Ry
     Harris-Foulkes estimate   =     -24.12753915 Ry
     estimated scf accuracy    <       0.00062303 Ry

     iteration #  3     ecut=    25.00 Ry     beta=0.70
     Davidson diagonalization with overlap
     ethr =  7.79E-06,  avg # of iterations =  2.0

     negative rho (up, down):  0.364E-02 0.000E+00

     total cpu time spent up to now is       35.4 secs

     total energy              =     -24.12735948 Ry
     Harris-Foulkes estimate   =     -24.12735959 Ry
     estimated scf accuracy    <       0.00000826 Ry

     iteration #  4     ecut=    25.00 Ry     beta=0.70
     Davidson diagonalization with overlap
     ethr =  1.03E-07,  avg # of iterations =  2.0

     negative rho (up, down):  0.365E-02 0.000E+00

     total cpu time spent up to now is       35.6 secs

     End of self-consistent calculation

          k = 0.0000 0.0000 0.0000 (  4193 PWs)   bands (ev):

   -22.2286 -12.4689 -11.5096  -7.6167

!    total energy              =     -24.12736106 Ry
     Harris-Foulkes estimate   =     -24.12736112 Ry
     estimated scf accuracy    <       0.00000036 Ry

     convergence has been achieved in   4 iterations

     Forces acting on atoms (Ry/au):

     atom    1 type  1   force =     0.34682068    0.15859130   -0.12538553
     atom    2 type  2   force =     0.04373236    0.01631251   -0.02283202
     atom    3 type  2   force =     0.07926907   -0.03849338    0.00445015
     atom    4 type  2   force =     0.03046909    0.05108202   -0.00583130

     Total force =     0.418586     Total SCF correction =     0.000668

     Entering Dynamics:    iteration =    10
                           time      =   0.0097 pico-seconds


ATOMIC_POSITIONS (angstrom)
N        4.427310808   4.410579094   4.180768349
H        4.008879585   4.510404847   5.100695449
H        4.657512928   3.467536220   4.023480407
H        3.714673558   4.417208846   3.472143124


     kinetic energy (Ekin) =     0.00622279 Ry
     temperature           =   218.33339478 K 
     Ekin + Etot (const)   =   -24.12113827 Ry
     Message from routine dynamics:
     Total linear momentum <> 0

     Linear momentum :   -0.1047211388   -0.2446180282    0.1030527163

     Writing output data file ms2.save
 ****** END OF FORCE_ESF COMPUTATION ******
     Check: negative starting charge=   -0.000553
     NEW-OLD atomic charge density approx. for the potential
     Check: negative starting charge=   -0.000552

     negative rho (up, down):  0.367E-02 0.000E+00
 ****** END OF ADD_ESF COMPUTATION ******

     total cpu time spent up to now is       38.6 secs

     per-process dynamical memory:    15.3 Mb

     Self-consistent Calculation

     iteration #  1     ecut=    25.00 Ry     beta=0.70
     Davidson diagonalization with overlap
     ethr =  1.00E-06,  avg # of iterations =  4.0

     negative rho (up, down):  0.369E-02 0.000E+00

     total cpu time spent up to now is       38.8 secs

     total energy              =     -24.13222489 Ry
     Harris-Foulkes estimate   =     -24.13244922 Ry
     estimated scf accuracy    <       0.00038828 Ry

     iteration #  2     ecut=    25.00 Ry     beta=0.70
     Davidson diagonalization with overlap
     ethr =  4.85E-06,  avg # of iterations =  2.0

     negative rho (up, down):  0.367E-02 0.000E+00

     total cpu time spent up to now is       38.9 secs

     total energy              =     -24.13229650 Ry
     Harris-Foulkes estimate   =     -24.13238336 Ry
     estimated scf accuracy    <       0.00016001 Ry

     iteration #  3     ecut=    25.00 Ry     beta=0.70
     Davidson diagonalization with overlap
     ethr =  2.00E-06,  avg # of iterations =  2.0

     negative rho (up, down):  0.368E-02 0.000E+00

     total cpu time spent up to now is       39.1 secs

     total energy              =     -24.13233605 Ry
     Harris-Foulkes estimate   =     -24.13233855 Ry
     estimated scf accuracy    <       0.00000710 Ry

     iteration #  4     ecut=    25.00 Ry     beta=0.70
     Davidson diagonalization with overlap
     ethr =  8.87E-08,  avg # of iterations =  2.0

     negative rho (up, down):  0.368E-02 0.000E+00

     total cpu time spent up to now is       39.2 secs

     End of self-consistent calculation

          k = 0.0000 0.0000 0.0000 (  4193 PWs)   bands (ev):

   -22.3162 -12.6058 -11.5004  -7.6136

!    total energy              =     -24.13233742 Ry
     Harris-Foulkes estimate   =     -24.13233740 Ry
     estimated scf accuracy    <       0.00000015 Ry

     convergence has been achieved in   4 iterations

     Forces acting on atoms (Ry/au):

     atom    1 type  1   force =     0.35688106    0.17097940   -0.08556633
     atom    2 type  2   force =     0.04061577    0.01462727   -0.01427714
     atom    3 type  2   force =     0.08657713   -0.05785742    0.01131528
     atom    4 type  2   force =     0.02040959    0.05575161   -0.00772356

     Total force =     0.424903     Total SCF correction =     0.000501

     Entering Dynamics:    iteration =    11
                           time      =   0.0106 pico-seconds


ATOMIC_POSITIONS (angstrom)
N        4.425821825   4.407212731   4.181171160
H        4.013149696   4.517632595   5.101706098
H        4.653060994   3.451705990   4.027715747
H        3.711549063   4.417661796   3.473411057


     kinetic energy (Ekin) =     0.00181678 Ry
     temperature           =    63.74381702 K 
     Ekin + Etot (const)   =   -24.13052064 Ry
     Message from routine dynamics:
     Total linear momentum <> 0

     Linear momentum :   -0.0656469121   -0.1502634296    0.0331380617

     Writing output data file ms2.save
 ****** END OF FORCE_ESF COMPUTATION ******
     Check: negative starting charge=   -0.000552
     NEW-OLD atomic charge density approx. for the potential
     Check: negative starting charge=   -0.000554

     negative rho (up, down):  0.365E-02 0.000E+00
 ****** END OF ADD_ESF COMPUTATION ******

     total cpu time spent up to now is       42.2 secs

     per-process dynamical memory:    15.3 Mb

     Self-consistent Calculation

     iteration #  1     ecut=    25.00 Ry     beta=0.70
     Davidson diagonalization with overlap
     ethr =  1.00E-06,  avg # of iterations =  3.0

     negative rho (up, down):  0.367E-02 0.000E+00

     total cpu time spent up to now is       42.4 secs

     total energy              =     -24.13402870 Ry
     Harris-Foulkes estimate   =     -24.13417382 Ry
     estimated scf accuracy    <       0.00025030 Ry

     iteration #  2     ecut=    25.00 Ry     beta=0.70
     Davidson diagonalization with overlap
     ethr =  3.13E-06,  avg # of iterations =  2.0

     negative rho (up, down):  0.369E-02 0.000E+00

     total cpu time spent up to now is       42.6 secs

     total energy              =     -24.13407655 Ry
     Harris-Foulkes estimate   =     -24.13410502 Ry
     estimated scf accuracy    <       0.00004995 Ry

     iteration #  3     ecut=    25.00 Ry     beta=0.70
     Davidson diagonalization with overlap
     ethr =  6.24E-07,  avg # of iterations =  2.0

     negative rho (up, down):  0.369E-02 0.000E+00

     total cpu time spent up to now is       42.7 secs

     total energy              =     -24.13408945 Ry
     Harris-Foulkes estimate   =     -24.13409272 Ry
     estimated scf accuracy    <       0.00000734 Ry

     iteration #  4     ecut=    25.00 Ry     beta=0.70
     Davidson diagonalization with overlap
     ethr =  9.18E-08,  avg # of iterations =  2.0

     negative rho (up, down):  0.369E-02 0.000E+00

     total cpu time spent up to now is       42.8 secs

     End of self-consistent calculation

          k = 0.0000 0.0000 0.0000 (  4193 PWs)   bands (ev):

   -22.2479 -12.5929 -11.4620  -7.5660

!    total energy              =     -24.13409096 Ry
     Harris-Foulkes estimate   =     -24.13409098 Ry
     estimated scf accuracy    <       0.00000017 Ry

     convergence has been achieved in   4 iterations

     Forces acting on atoms (Ry/au):

     atom    1 type  1   force =     0.32746978    0.16635650   -0.09105730
     atom    2 type  2   force =     0.03387775    0.01637596   -0.01220524
     atom    3 type  2   force =     0.07457747   -0.03305233    0.01480312
     atom    4 type  2   force =     0.01712093    0.05640155   -0.00506932

     Total force =     0.393879     Total SCF correction =     0.000334

     Entering Dynamics:    iteration =    12
                           time      =   0.0116 pico-seconds


ATOMIC_POSITIONS (angstrom)
N        4.426201298   4.407301720   4.180175792
H        4.014812647   4.525710635   5.101337195
H        4.656119084   3.423744929   4.037433290
H        3.698690525   4.430731700   3.471169424


     kinetic energy (Ekin) =     0.00255401 Ry
     temperature           =    89.61007701 K 
     Ekin + Etot (const)   =   -24.13153695 Ry
     Message from routine dynamics:
     Total linear momentum <> 0

     Linear momentum :   -0.0078454888   -0.0152628172   -0.0183857575

     Writing output data file ms2.save
 ****** END OF FORCE_ESF COMPUTATION ******
     Check: negative starting charge=   -0.000554
     NEW-OLD atomic charge density approx. for the potential
     Check: negative starting charge=   -0.000554

     negative rho (up, down):  0.363E-02 0.000E+00
 ****** END OF ADD_ESF COMPUTATION ******

     total cpu time spent up to now is       45.9 secs

     per-process dynamical memory:    15.3 Mb

     Self-consistent Calculation

     iteration #  1     ecut=    25.00 Ry     beta=0.70
     Davidson diagonalization with overlap
     ethr =  1.00E-06,  avg # of iterations =  4.0

     negative rho (up, down):  0.361E-02 0.000E+00

     total cpu time spent up to now is       46.0 secs

     total energy              =     -24.14726686 Ry
     Harris-Foulkes estimate   =     -24.14779192 Ry
     estimated scf accuracy    <       0.00085511 Ry

     iteration #  2     ecut=    25.00 Ry     beta=0.70
     Davidson diagonalization with overlap
     ethr =  1.07E-05,  avg # of iterations =  2.0

     negative rho (up, down):  0.366E-02 0.000E+00

     total cpu time spent up to now is       46.2 secs

     total energy              =     -24.14744624 Ry
     Harris-Foulkes estimate   =     -24.14770584 Ry
     estimated scf accuracy    <       0.00050481 Ry

     iteration #  3     ecut=    25.00 Ry     beta=0.70
     Davidson diagonalization with overlap
     ethr =  6.31E-06,  avg # of iterations =  2.0

     negative rho (up, down):  0.366E-02 0.000E+00

     total cpu time spent up to now is       46.4 secs

     total energy              =     -24.14755862 Ry
     Harris-Foulkes estimate   =     -24.14755985 Ry
     estimated scf accuracy    <       0.00000831 Ry

     iteration #  4     ecut=    25.00 Ry     beta=0.70
     Davidson diagonalization with overlap
     ethr =  1.04E-07,  avg # of iterations =  2.0

     negative rho (up, down):  0.366E-02 0.000E+00

     total cpu time spent up to now is       46.5 secs

     End of self-consistent calculation

          k = 0.0000 0.0000 0.0000 (  4193 PWs)   bands (ev):

   -22.0992 -12.5001 -11.4261  -7.5511

!    total energy              =     -24.14756019 Ry
     Harris-Foulkes estimate   =     -24.14756023 Ry
     estimated scf accuracy    <       0.00000030 Ry

     convergence has been achieved in   4 iterations

     Forces acting on atoms (Ry/au):

     atom    1 type  1   force =     0.33098940    0.12384182   -0.08035812
     atom    2 type  2   force =     0.03425826    0.01558887   -0.00866829
     atom    3 type  2   force =     0.05898330    0.01183215    0.02035772
     atom    4 type  2   force =     0.03174208    0.04940042    0.00908785

     Total force =     0.374705     Total SCF correction =     0.000740

     Entering Dynamics:    iteration =    13
                           time      =   0.0126 pico-seconds


ATOMIC_POSITIONS (angstrom)
N        4.428217648   4.409278105   4.176841722
H        4.015399608   4.532452852   5.100554327
H        4.664685195   3.393269028   4.053819348
H        3.681803240   4.453122145   3.468819346


     kinetic energy (Ekin) =     0.00633576 Ry
     temperature           =   222.29677780 K 
     Ekin + Etot (const)   =   -24.14122443 Ry
     Message from routine dynamics:
     Total linear momentum <> 0

     Linear momentum :    0.0554783700    0.0714494091   -0.0904634388

     Writing output data file ms2.save
 ****** END OF FORCE_ESF COMPUTATION ******
     Check: negative starting charge=   -0.000554
     NEW-OLD atomic charge density approx. for the potential
     Check: negative starting charge=   -0.000544

     negative rho (up, down):  0.360E-02 0.000E+00
 ****** END OF ADD_ESF COMPUTATION ******

     total cpu time spent up to now is       49.5 secs

     per-process dynamical memory:    15.3 Mb

     Self-consistent Calculation

     iteration #  1     ecut=    25.00 Ry     beta=0.70
     Davidson diagonalization with overlap
     ethr =  1.00E-06,  avg # of iterations =  4.0

     negative rho (up, down):  0.356E-02 0.000E+00

     total cpu time spent up to now is       49.7 secs

     total energy              =     -24.15900702 Ry
     Harris-Foulkes estimate   =     -24.15964047 Ry
     estimated scf accuracy    <       0.00107318 Ry

     iteration #  2     ecut=    25.00 Ry     beta=0.70
     Davidson diagonalization with overlap
     ethr =  1.34E-05,  avg # of iterations =  2.0

     negative rho (up, down):  0.362E-02 0.000E+00

     total cpu time spent up to now is       49.8 secs

     total energy              =     -24.15922676 Ry
     Harris-Foulkes estimate   =     -24.15959427 Ry
     estimated scf accuracy    <       0.00073294 Ry

     iteration #  3     ecut=    25.00 Ry     beta=0.70
     Davidson diagonalization with overlap
     ethr =  9.16E-06,  avg # of iterations =  2.0

     negative rho (up, down):  0.363E-02 0.000E+00

     total cpu time spent up to now is       50.0 secs

     total energy              =     -24.15938577 Ry
     Harris-Foulkes estimate   =     -24.15938548 Ry
     estimated scf accuracy    <       0.00000901 Ry

     iteration #  4     ecut=    25.00 Ry     beta=0.70
     Davidson diagonalization with overlap
     ethr =  1.13E-07,  avg # of iterations =  2.0

     negative rho (up, down):  0.362E-02 0.000E+00

     total cpu time spent up to now is       50.1 secs

     End of self-consistent calculation

          k = 0.0000 0.0000 0.0000 (  4193 PWs)   bands (ev):

   -21.9289 -12.3274 -11.4231  -7.5452

!    total energy              =     -24.15938735 Ry
     Harris-Foulkes estimate   =     -24.15938759 Ry
     estimated scf accuracy    <       0.00000051 Ry

     convergence has been achieved in   4 iterations

     Forces acting on atoms (Ry/au):

     atom    1 type  1   force =     0.32807303    0.08638872   -0.08774276
     atom    2 type  2   force =     0.03685111    0.01520623   -0.01114843
     atom    3 type  2   force =     0.04250427    0.05464913    0.01829849
     atom    4 type  2   force =     0.05116945    0.03875271    0.02236402

     Total force =     0.366409     Total SCF correction =     0.000801

     Entering Dynamics:    iteration =    14
                           time      =   0.0135 pico-seconds


ATOMIC_POSITIONS (angstrom)
N        4.431972451   4.410208911   4.170589381
H        4.014643662   4.535960722   5.097167365
H        4.673917811   3.369542210   4.074900301
H        3.665063437   4.480780966   3.467948490


     kinetic energy (Ekin) =     0.00893255 Ry
     temperature           =   313.40815356 K 
     Ekin + Etot (const)   =   -24.15045480 Ry
     Message from routine dynamics:
     Total linear momentum <> 0

     Linear momentum :    0.1201122316    0.0557420537   -0.1916213742

     Writing output data file ms2.save
 ****** END OF FORCE_ESF COMPUTATION ******
     Check: negative starting charge=   -0.000544
     NEW-OLD atomic charge density approx. for the potential
     Check: negative starting charge=   -0.000531

     negative rho (up, down):  0.359E-02 0.000E+00
 ****** END OF ADD_ESF COMPUTATION ******

     total cpu time spent up to now is       53.3 secs

     per-process dynamical memory:    15.3 Mb

     Self-consistent Calculation

     iteration #  1     ecut=    25.00 Ry     beta=0.70
     Davidson diagonalization with overlap
     ethr =  1.00E-06,  avg # of iterations =  4.0

     negative rho (up, down):  0.353E-02 0.000E+00

     total cpu time spent up to now is       53.5 secs

     total energy              =     -24.16872819 Ry
     Harris-Foulkes estimate   =     -24.16910471 Ry
     estimated scf accuracy    <       0.00071170 Ry

     iteration #  2     ecut=    25.00 Ry     beta=0.70
     Davidson diagonalization with overlap
     ethr =  8.90E-06,  avg # of iterations =  2.0

     negative rho (up, down):  0.358E-02 0.000E+00

     total cpu time spent up to now is       53.7 secs

     total energy              =     -24.16886349 Ry
     Harris-Foulkes estimate   =     -24.16910718 Ry
     estimated scf accuracy    <       0.00049132 Ry

     iteration #  3     ecut=    25.00 Ry     beta=0.70
     Davidson diagonalization with overlap
     ethr =  6.14E-06,  avg # of iterations =  2.0

     negative rho (up, down):  0.359E-02 0.000E+00

     total cpu time spent up to now is       53.8 secs

     total energy              =     -24.16897205 Ry
     Harris-Foulkes estimate   =     -24.16897136 Ry
     estimated scf accuracy    <       0.00000784 Ry

     iteration #  4     ecut=    25.00 Ry     beta=0.70
     Davidson diagonalization with overlap
     ethr =  9.81E-08,  avg # of iterations =  2.0

     negative rho (up, down):  0.359E-02 0.000E+00

     total cpu time spent up to now is       54.0 secs

     End of self-consistent calculation

          k = 0.0000 0.0000 0.0000 (  4193 PWs)   bands (ev):

   -21.8001 -12.1299 -11.4722  -7.5476

!    total energy              =     -24.16897320 Ry
     Harris-Foulkes estimate   =     -24.16897340 Ry
     estimated scf accuracy    <       0.00000041 Ry

     convergence has been achieved in   4 iterations

     Forces acting on atoms (Ry/au):

     atom    1 type  1   force =     0.32135952    0.06522933   -0.08455511
     atom    2 type  2   force =     0.04119553    0.01565274   -0.01552682
     atom    3 type  2   force =     0.02989108    0.08168519    0.01138781
     atom    4 type  2   force =     0.06837208    0.02663012    0.03159450

     Total force =     0.361853     Total SCF correction =     0.000704

     Entering Dynamics:    iteration =    15
                           time      =   0.0145 pico-seconds


ATOMIC_POSITIONS (angstrom)
N        4.436942322   4.407844977   4.160895317
H        4.013312199   4.534757353   5.090235616
H        4.680426228   3.357606882   4.098810708
H        3.652530576   4.508851598   3.470792137


     kinetic energy (Ekin) =     0.01003634 Ry
     temperature           =   352.13567871 K 
     Ekin + Etot (const)   =   -24.15893686 Ry
     Message from routine dynamics:
     Total linear momentum <> 0

     Linear momentum :    0.1687816075   -0.0489926685   -0.3142387884

     Writing output data file ms2.save
 ****** END OF FORCE_ESF COMPUTATION ******
     Check: negative starting charge=   -0.000531
     NEW-OLD atomic charge density approx. for the potential
     Check: negative starting charge=   -0.000527

     negative rho (up, down):  0.361E-02 0.000E+00
 ****** END OF ADD_ESF COMPUTATION ******

     total cpu time spent up to now is       57.0 secs

     per-process dynamical memory:    15.3 Mb

     Self-consistent Calculation

     iteration #  1     ecut=    25.00 Ry     beta=0.70
     Davidson diagonalization with overlap
     ethr =  1.00E-06,  avg # of iterations =  4.0

     negative rho (up, down):  0.352E-02 0.000E+00

     total cpu time spent up to now is       57.1 secs

     total energy              =     -24.17870734 Ry
     Harris-Foulkes estimate   =     -24.17877902 Ry
     estimated scf accuracy    <       0.00026122 Ry

     iteration #  2     ecut=    25.00 Ry     beta=0.70
     Davidson diagonalization with overlap
     ethr =  3.27E-06,  avg # of iterations =  2.0

     negative rho (up, down):  0.355E-02 0.000E+00

     total cpu time spent up to now is       57.3 secs

     total energy              =     -24.17874227 Ry
     Harris-Foulkes estimate   =     -24.17879572 Ry
     estimated scf accuracy    <       0.00010725 Ry

     iteration #  3     ecut=    25.00 Ry     beta=0.70
     Davidson diagonalization with overlap
     ethr =  1.34E-06,  avg # of iterations =  2.0

     negative rho (up, down):  0.356E-02 0.000E+00

     total cpu time spent up to now is       57.5 secs

     total energy              =     -24.17877031 Ry
     Harris-Foulkes estimate   =     -24.17877230 Ry
     estimated scf accuracy    <       0.00000971 Ry

     iteration #  4     ecut=    25.00 Ry     beta=0.70
     Davidson diagonalization with overlap
     ethr =  1.21E-07,  avg # of iterations =  2.0

     negative rho (up, down):  0.356E-02 0.000E+00

     total cpu time spent up to now is       57.6 secs

     End of self-consistent calculation

          k = 0.0000 0.0000 0.0000 (  4193 PWs)   bands (ev):

   -21.7502 -11.9436 -11.5951  -7.5629

!    total energy              =     -24.17877192 Ry
     Harris-Foulkes estimate   =     -24.17877190 Ry
     estimated scf accuracy    <       0.00000016 Ry

     convergence has been achieved in   4 iterations

     Forces acting on atoms (Ry/au):

     atom    1 type  1   force =     0.31435517    0.06105577   -0.07101817
     atom    2 type  2   force =     0.04646548    0.01735141   -0.01995056
     atom    3 type  2   force =     0.02270232    0.09007644    0.00109169
     atom    4 type  2   force =     0.07929069    0.01487374    0.03361702

     Total force =     0.355974     Total SCF correction =     0.000715

     Entering Dynamics:    iteration =    16
                           time      =   0.0155 pico-seconds


ATOMIC_POSITIONS (angstrom)
N        4.442400676   4.401190911   4.148145121
H        4.012158485   4.528468504   5.078872644
H        4.681948269   3.358686119   4.123064607
H        3.646535856   4.533601707   3.477913024


     kinetic energy (Ekin) =     0.01173034 Ry
     temperature           =   411.57142579 K 
     Ekin + Etot (const)   =   -24.16704159 Ry
     Message from routine dynamics:
     Total linear momentum <> 0

     Linear momentum :    0.1920827424   -0.1994549784   -0.4298884679

     Writing output data file ms2.save
 ****** END OF FORCE_ESF COMPUTATION ******
     Check: negative starting charge=   -0.000527
     NEW-OLD atomic charge density approx. for the potential
     Check: negative starting charge=   -0.000527

     negative rho (up, down):  0.364E-02 0.000E+00
 ****** END OF ADD_ESF COMPUTATION ******

     total cpu time spent up to now is       60.6 secs

     per-process dynamical memory:    15.3 Mb

     Self-consistent Calculation

     iteration #  1     ecut=    25.00 Ry     beta=0.70
     Davidson diagonalization with overlap
     ethr =  1.00E-06,  avg # of iterations =  4.0

     negative rho (up, down):  0.352E-02 0.000E+00

     total cpu time spent up to now is       60.8 secs

     total energy              =     -24.18751685 Ry
     Harris-Foulkes estimate   =     -24.18754721 Ry
     estimated scf accuracy    <       0.00019033 Ry

     iteration #  2     ecut=    25.00 Ry     beta=0.70
     Davidson diagonalization with overlap
     ethr =  2.38E-06,  avg # of iterations =  2.0

     negative rho (up, down):  0.353E-02 0.000E+00

     total cpu time spent up to now is       61.0 secs

     total energy              =     -24.18754728 Ry
     Harris-Foulkes estimate   =     -24.18755309 Ry
     estimated scf accuracy    <       0.00002322 Ry

     iteration #  3     ecut=    25.00 Ry     beta=0.70
     Davidson diagonalization with overlap
     ethr =  2.90E-07,  avg # of iterations =  2.0

     negative rho (up, down):  0.354E-02 0.000E+00

     total cpu time spent up to now is       61.1 secs

     total energy              =     -24.18755212 Ry
     Harris-Foulkes estimate   =     -24.18755424 Ry
     estimated scf accuracy    <       0.00000626 Ry

     iteration #  4     ecut=    25.00 Ry     beta=0.70
     Davidson diagonalization with overlap
     ethr =  7.83E-08,  avg # of iterations =  2.0

     negative rho (up, down):  0.354E-02 0.000E+00

     total cpu time spent up to now is       61.2 secs

     End of self-consistent calculation

          k = 0.0000 0.0000 0.0000 (  4193 PWs)   bands (ev):

   -21.7875 -11.8093 -11.7631  -7.5762

!    total energy              =     -24.18755343 Ry
     Harris-Foulkes estimate   =     -24.18755372 Ry
     estimated scf accuracy    <       0.00000058 Ry

     convergence has been achieved in   4 iterations

     Forces acting on atoms (Ry/au):

     atom    1 type  1   force =     0.30960314    0.07286943   -0.01759007
     atom    2 type  2   force =     0.05120675    0.02010438   -0.01695059
     atom    3 type  2   force =     0.02142723    0.07954354   -0.00552180
     atom    4 type  2   force =     0.08195757    0.00548323    0.03205815

     Total force =     0.345512     Total SCF correction =     0.000571

     Entering Dynamics:    iteration =    17
                           time      =   0.0164 pico-seconds


ATOMIC_POSITIONS (angstrom)
N        4.447676922   4.390513594   4.133352299
H        4.011833992   4.517966825   5.063873910
H        4.677619580   3.370244174   4.145953219
H        3.647347873   4.552816408   3.488872091


     kinetic energy (Ekin) =     0.01492535 Ry
     temperature           =   523.67175050 K 
     Ekin + Etot (const)   =   -24.17262808 Ry
     Message from routine dynamics:
     Total linear momentum <> 0

     Linear momentum :    0.1900461812   -0.3503855743   -0.5107142275

     Writing output data file ms2.save
 ****** END OF FORCE_ESF COMPUTATION ******
     Check: negative starting charge=   -0.000527
     NEW-OLD atomic charge density approx. for the potential
     Check: negative starting charge=   -0.000532

     negative rho (up, down):  0.368E-02 0.000E+00
 ****** END OF ADD_ESF COMPUTATION ******

     total cpu time spent up to now is       64.4 secs

     per-process dynamical memory:    15.3 Mb

     Self-consistent Calculation

     iteration #  1     ecut=    25.00 Ry     beta=0.70
     Davidson diagonalization with overlap
     ethr =  1.00E-06,  avg # of iterations =  5.0

     negative rho (up, down):  0.354E-02 0.000E+00

     total cpu time spent up to now is       64.6 secs

     total energy              =     -24.20042295 Ry
     Harris-Foulkes estimate   =     -24.20081340 Ry
     estimated scf accuracy    <       0.00070991 Ry

     iteration #  2     ecut=    25.00 Ry     beta=0.70
     Davidson diagonalization with overlap
     ethr =  8.87E-06,  avg # of iterations =  2.0

     negative rho (up, down):  0.354E-02 0.000E+00

     total cpu time spent up to now is       64.8 secs

     total energy              =     -24.20056458 Ry
     Harris-Foulkes estimate   =     -24.20076058 Ry
     estimated scf accuracy    <       0.00038032 Ry

     iteration #  3     ecut=    25.00 Ry     beta=0.70
     Davidson diagonalization with overlap
     ethr =  4.75E-06,  avg # of iterations =  2.0

     negative rho (up, down):  0.355E-02 0.000E+00

     total cpu time spent up to now is       64.9 secs

     total energy              =     -24.20065455 Ry
     Harris-Foulkes estimate   =     -24.20065656 Ry
     estimated scf accuracy    <       0.00001144 Ry

     iteration #  4     ecut=    25.00 Ry     beta=0.70
     Davidson diagonalization with overlap
     ethr =  1.43E-07,  avg # of iterations =  2.0

     negative rho (up, down):  0.356E-02 0.000E+00

     total cpu time spent up to now is       65.1 secs

     End of self-consistent calculation

          k = 0.0000 0.0000 0.0000 (  4193 PWs)   bands (ev):

   -21.9252 -12.0580 -11.6778  -7.6199

!    total energy              =     -24.20065679 Ry
     Harris-Foulkes estimate   =     -24.20065667 Ry
     estimated scf accuracy    <       0.00000038 Ry

     convergence has been achieved in   4 iterations

     Forces acting on atoms (Ry/au):

     atom    1 type  1   force =     0.30812227    0.09918395    0.00477397
     atom    2 type  2   force =     0.05494386    0.02477259   -0.01543903
     atom    3 type  2   force =     0.02573554    0.05039146   -0.01684675
     atom    4 type  2   force =     0.07710225   -0.00154934    0.01967269

     Total force =     0.344224     Total SCF correction =     0.000832

     Entering Dynamics:    iteration =    18
                           time      =   0.0174 pico-seconds


ATOMIC_POSITIONS (angstrom)
N        4.452342977   4.377232636   4.118561441
H        4.012594488   4.505647762   5.045607308
H        4.668071866   3.386018275   4.164201469
H        3.653748840   4.565617118   3.500610641


     kinetic energy (Ekin) =     0.01721858 Ry
     temperature           =   604.13235496 K 
     Ekin + Etot (const)   =   -24.18343821 Ry
     Message from routine dynamics:
     Total linear momentum <> 0

     Linear momentum :    0.1708335521   -0.4603427390   -0.5301488210

     Writing output data file ms2.save
 ****** END OF FORCE_ESF COMPUTATION ******
     Check: negative starting charge=   -0.000532
     NEW-OLD atomic charge density approx. for the potential
     Check: negative starting charge=   -0.000544

     negative rho (up, down):  0.372E-02 0.000E+00
 ****** END OF ADD_ESF COMPUTATION ******

     total cpu time spent up to now is       68.1 secs

     per-process dynamical memory:    15.3 Mb

     Self-consistent Calculation

     iteration #  1     ecut=    25.00 Ry     beta=0.70
     Davidson diagonalization with overlap
     ethr =  1.00E-06,  avg # of iterations =  5.0

     negative rho (up, down):  0.360E-02 0.000E+00

     total cpu time spent up to now is       68.3 secs

     total energy              =     -24.21067644 Ry
     Harris-Foulkes estimate   =     -24.21137958 Ry
     estimated scf accuracy    <       0.00115320 Ry

     iteration #  2     ecut=    25.00 Ry     beta=0.70
     Davidson diagonalization with overlap
     ethr =  1.44E-05,  avg # of iterations =  2.0

     negative rho (up, down):  0.359E-02 0.000E+00

     total cpu time spent up to now is       68.4 secs

     total energy              =     -24.21092323 Ry
     Harris-Foulkes estimate   =     -24.21128042 Ry
     estimated scf accuracy    <       0.00069820 Ry

     iteration #  3     ecut=    25.00 Ry     beta=0.70
     Davidson diagonalization with overlap
     ethr =  8.73E-06,  avg # of iterations =  2.0

     negative rho (up, down):  0.359E-02 0.000E+00

     total cpu time spent up to now is       68.6 secs

     total energy              =     -24.21108061 Ry
     Harris-Foulkes estimate   =     -24.21108207 Ry
     estimated scf accuracy    <       0.00001179 Ry

     iteration #  4     ecut=    25.00 Ry     beta=0.70
     Davidson diagonalization with overlap
     ethr =  1.47E-07,  avg # of iterations =  2.0

     negative rho (up, down):  0.360E-02 0.000E+00

     total cpu time spent up to now is       68.7 secs

     End of self-consistent calculation

          k = 0.0000 0.0000 0.0000 (  4193 PWs)   bands (ev):

   -22.1227 -12.3558 -11.6077  -7.6700

!    total energy              =     -24.21108309 Ry
     Harris-Foulkes estimate   =     -24.21108309 Ry
     estimated scf accuracy    <       0.00000054 Ry

     convergence has been achieved in   4 iterations

     Forces acting on atoms (Ry/au):

     atom    1 type  1   force =     0.31034128    0.13661152    0.02451813
     atom    2 type  2   force =     0.05675949    0.03034157   -0.00992084
     atom    3 type  2   force =     0.03434270    0.00576189   -0.02540933
     atom    4 type  2   force =     0.06554487   -0.00512414    0.00286508

     Total force =     0.354972     Total SCF correction =     0.001105

     Entering Dynamics:    iteration =    19
                           time      =   0.0184 pico-seconds


ATOMIC_POSITIONS (angstrom)
N        4.456236820   4.363808737   4.105256975
H        4.014885870   4.494722109   5.027459894
H        4.655094681   3.396735369   4.177739843
H        3.662653840   4.572961700   3.510839125


     kinetic energy (Ekin) =     0.01576685 Ry
     temperature           =   553.19677466 K 
     Ekin + Etot (const)   =   -24.19531625 Ry
     Message from routine dynamics:
     Total linear momentum <> 0

     Linear momentum :    0.1431374957   -0.4907340595   -0.4903446265

     Writing output data file ms2.save
 ****** END OF FORCE_ESF COMPUTATION ******
     Check: negative starting charge=   -0.000544
     NEW-OLD atomic charge density approx. for the potential
     Check: negative starting charge=   -0.000553

     negative rho (up, down):  0.375E-02 0.000E+00
 ****** END OF ADD_ESF COMPUTATION ******

     total cpu time spent up to now is       71.7 secs

     per-process dynamical memory:    15.3 Mb

     Self-consistent Calculation

     iteration #  1     ecut=    25.00 Ry     beta=0.70
     Davidson diagonalization with overlap
     ethr =  1.00E-06,  avg # of iterations =  4.0

     negative rho (up, down):  0.368E-02 0.000E+00

     total cpu time spent up to now is       71.9 secs

     total energy              =     -24.21753295 Ry
     Harris-Foulkes estimate   =     -24.21815859 Ry
     estimated scf accuracy    <       0.00100815 Ry

     iteration #  2     ecut=    25.00 Ry     beta=0.70
     Davidson diagonalization with overlap
     ethr =  1.26E-05,  avg # of iterations =  2.0

     negative rho (up, down):  0.366E-02 0.000E+00

     total cpu time spent up to now is       72.1 secs

     total energy              =     -24.21775413 Ry
     Harris-Foulkes estimate   =     -24.21806875 Ry
     estimated scf accuracy    <       0.00061452 Ry

     iteration #  3     ecut=    25.00 Ry     beta=0.70
     Davidson diagonalization with overlap
     ethr =  7.68E-06,  avg # of iterations =  2.0

     negative rho (up, down):  0.366E-02 0.000E+00

     total cpu time spent up to now is       72.2 secs

     total energy              =     -24.21789111 Ry
     Harris-Foulkes estimate   =     -24.21789201 Ry
     estimated scf accuracy    <       0.00000890 Ry

     iteration #  4     ecut=    25.00 Ry     beta=0.70
     Davidson diagonalization with overlap
     ethr =  1.11E-07,  avg # of iterations =  2.0

     negative rho (up, down):  0.367E-02 0.000E+00

     total cpu time spent up to now is       72.4 secs

     End of self-consistent calculation

          k = 0.0000 0.0000 0.0000 (  4193 PWs)   bands (ev):

   -22.3202 -12.6122 -11.5679  -7.7212

!    total energy              =     -24.21789301 Ry
     Harris-Foulkes estimate   =     -24.21789307 Ry
     estimated scf accuracy    <       0.00000045 Ry

     convergence has been achieved in   4 iterations

     Forces acting on atoms (Ry/au):

     atom    1 type  1   force =     0.31692103    0.17151402    0.03823252
     atom    2 type  2   force =     0.05686233    0.03568090   -0.00208896
     atom    3 type  2   force =     0.04284096   -0.03886066   -0.03000626
     atom    4 type  2   force =     0.05084294   -0.00572160   -0.01437747

     Total force =     0.378020     Total SCF correction =     0.001107

     Entering Dynamics:    iteration =    20
                           time      =   0.0194 pico-seconds


ATOMIC_POSITIONS (angstrom)
N        4.459539884   4.353307549   4.094835688
H        4.018824128   4.489055919   5.012598772
H        4.640760478   3.393590041   4.186485223
H        3.670540127   4.577115583   3.516376091


     kinetic energy (Ekin) =     0.01003724 Ry
     temperature           =   352.16733605 K 
     Ekin + Etot (const)   =   -24.20785577 Ry
     Message from routine dynamics:
     Total linear momentum <> 0

     Linear momentum :    0.1186863900   -0.4119129315   -0.3977131810

     Writing output data file ms2.save
 ****** END OF FORCE_ESF COMPUTATION ******
     Check: negative starting charge=   -0.000553
     NEW-OLD atomic charge density approx. for the potential
     Check: negative starting charge=   -0.000556

     negative rho (up, down):  0.375E-02 0.000E+00
 ****** END OF ADD_ESF COMPUTATION ******

     total cpu time spent up to now is       75.4 secs

     per-process dynamical memory:    15.3 Mb

     Self-consistent Calculation

     iteration #  1     ecut=    25.00 Ry     beta=0.70
     Davidson diagonalization with overlap
     ethr =  1.00E-06,  avg # of iterations =  4.0

     negative rho (up, down):  0.371E-02 0.000E+00

     total cpu time spent up to now is       75.6 secs

     total energy              =     -24.23221062 Ry
     Harris-Foulkes estimate   =     -24.23235776 Ry
     estimated scf accuracy    <       0.00029249 Ry

     iteration #  2     ecut=    25.00 Ry     beta=0.70
     Davidson diagonalization with overlap
     ethr =  3.66E-06,  avg # of iterations =  2.0

     negative rho (up, down):  0.370E-02 0.000E+00

     total cpu time spent up to now is       75.7 secs

     total energy              =     -24.23226406 Ry
     Harris-Foulkes estimate   =     -24.23235439 Ry
     estimated scf accuracy    <       0.00017963 Ry

     iteration #  3     ecut=    25.00 Ry     beta=0.70
     Davidson diagonalization with overlap
     ethr =  2.25E-06,  avg # of iterations =  2.0

     negative rho (up, down):  0.369E-02 0.000E+00

     total cpu time spent up to now is       75.9 secs

     total energy              =     -24.23230493 Ry
     Harris-Foulkes estimate   =     -24.23230501 Ry
     estimated scf accuracy    <       0.00000403 Ry

     iteration #  4     ecut=    25.00 Ry     beta=0.70
     Davidson diagonalization with overlap
     ethr =  5.04E-08,  avg # of iterations =  2.0

     negative rho (up, down):  0.370E-02 0.000E+00

     total cpu time spent up to now is       76.0 secs

     End of self-consistent calculation

          k = 0.0000 0.0000 0.0000 (  4193 PWs)   bands (ev):

   -22.4505 -12.7578 -11.5658  -7.7919

!    total energy              =     -24.23230554 Ry
     Harris-Foulkes estimate   =     -24.23230562 Ry
     estimated scf accuracy    <       0.00000018 Ry

     convergence has been achieved in   4 iterations

     Forces acting on atoms (Ry/au):

     atom    1 type  1   force =     0.32694386    0.20512696    0.04577983
     atom    2 type  2   force =     0.05576711    0.04338069    0.00534640
     atom    3 type  2   force =     0.04539893   -0.05223380   -0.03257699
     atom    4 type  2   force =     0.03893203   -0.00163391   -0.02639266

     Total force =     0.405156     Total SCF correction =     0.000861

     Entering Dynamics:    iteration =    21
                           time      =   0.0203 pico-seconds


ATOMIC_POSITIONS (angstrom)
N        4.462785089   4.348094858   4.088237592
H        4.024519011   4.492356233   5.003777668
H        4.626043324   3.374606412   4.190534682
H        3.674818846   4.580798694   3.514955083


     kinetic energy (Ekin) =     0.00458454 Ry
     temperature           =   160.85334258 K 
     Ekin + Etot (const)   =   -24.22772100 Ry
     Message from routine dynamics:
     Total linear momentum <> 0

     Linear momentum :    0.1103736204   -0.2309833619   -0.2677512440

     Writing output data file ms2.save
 ****** END OF FORCE_ESF COMPUTATION ******
     Check: negative starting charge=   -0.000556
     NEW-OLD atomic charge density approx. for the potential
     Check: negative starting charge=   -0.000558

     negative rho (up, down):  0.370E-02 0.000E+00
 ****** END OF ADD_ESF COMPUTATION ******

     total cpu time spent up to now is       79.0 secs

     per-process dynamical memory:    15.3 Mb

     Self-consistent Calculation

     iteration #  1     ecut=    25.00 Ry     beta=0.70
     Davidson diagonalization with overlap
     ethr =  1.00E-06,  avg # of iterations =  4.0

     negative rho (up, down):  0.369E-02 0.000E+00

     total cpu time spent up to now is       79.2 secs

     total energy              =     -24.22615030 Ry
     Harris-Foulkes estimate   =     -24.22623628 Ry
     estimated scf accuracy    <       0.00020543 Ry

     iteration #  2     ecut=    25.00 Ry     beta=0.70
     Davidson diagonalization with overlap
     ethr =  2.57E-06,  avg # of iterations =  2.0

     negative rho (up, down):  0.370E-02 0.000E+00

     total cpu time spent up to now is       79.4 secs

     total energy              =     -24.22617820 Ry
     Harris-Foulkes estimate   =     -24.22621569 Ry
     estimated scf accuracy    <       0.00007176 Ry

     iteration #  3     ecut=    25.00 Ry     beta=0.70
     Davidson diagonalization with overlap
     ethr =  8.97E-07,  avg # of iterations =  2.0

     negative rho (up, down):  0.370E-02 0.000E+00

     total cpu time spent up to now is       79.5 secs

     total energy              =     -24.22619619 Ry
     Harris-Foulkes estimate   =     -24.22619841 Ry
     estimated scf accuracy    <       0.00000672 Ry

     iteration #  4     ecut=    25.00 Ry     beta=0.70
     Davidson diagonalization with overlap
[...]

     total cpu time spent up to now is      345.3 secs

     per-process dynamical memory:    15.3 Mb

     Self-consistent Calculation

     iteration #  1     ecut=    25.00 Ry     beta=0.70
     Davidson diagonalization with overlap
     ethr =  1.00E-06,  avg # of iterations =  4.0

     negative rho (up, down):  0.351E-02 0.000E+00

     total cpu time spent up to now is      345.5 secs

     total energy              =     -23.70228716 Ry
     Harris-Foulkes estimate   =     -23.70259429 Ry
     estimated scf accuracy    <       0.00054037 Ry

     iteration #  2     ecut=    25.00 Ry     beta=0.70
     Davidson diagonalization with overlap
     ethr =  6.75E-06,  avg # of iterations =  2.0

     negative rho (up, down):  0.355E-02 0.000E+00

     total cpu time spent up to now is      345.6 secs

     total energy              =     -23.70239241 Ry
     Harris-Foulkes estimate   =     -23.70256066 Ry
     estimated scf accuracy    <       0.00033248 Ry

     iteration #  3     ecut=    25.00 Ry     beta=0.70
     Davidson diagonalization with overlap
     ethr =  4.16E-06,  avg # of iterations =  2.0

     negative rho (up, down):  0.355E-02 0.000E+00

     total cpu time spent up to now is      345.8 secs

     total energy              =     -23.70246703 Ry
     Harris-Foulkes estimate   =     -23.70246751 Ry
     estimated scf accuracy    <       0.00000642 Ry

     iteration #  4     ecut=    25.00 Ry     beta=0.70
     Davidson diagonalization with overlap
     ethr =  8.02E-08,  avg # of iterations =  2.0

     negative rho (up, down):  0.355E-02 0.000E+00

     total cpu time spent up to now is      345.9 secs

     End of self-consistent calculation

          k = 0.0000 0.0000 0.0000 (  4193 PWs)   bands (ev):

   -21.2373 -11.7205 -10.4539  -6.7977

!    total energy              =     -23.70246807 Ry
     Harris-Foulkes estimate   =     -23.70246813 Ry
     estimated scf accuracy    <       0.00000023 Ry

     convergence has been achieved in   4 iterations

     Forces acting on atoms (Ry/au):

     atom    1 type  1   force =     0.27719538    0.07102005   -0.11478760
     atom    2 type  2   force =     0.04364422   -0.00805119   -0.04437740
     atom    3 type  2   force =     0.04551887   -0.00421788    0.04303655
     atom    4 type  2   force =     0.04525818    0.03037449    0.03043197

     Total force =     0.326857     Total SCF correction =     0.000678

     Entering Dynamics:    iteration =    95
                           time      =   0.0919 pico-seconds


ATOMIC_POSITIONS (angstrom)
N        4.507275164   4.221131467   4.289307462
H        3.937708787   4.375762368   5.153650083
H        4.225518789   3.359181830   3.810411499
H        4.101778082   4.841363845   3.540077111


     kinetic energy (Ekin) =     0.00669878 Ry
     temperature           =   235.03394498 K 
     Ekin + Etot (const)   =   -23.69576929 Ry
     Message from routine dynamics:
     Total linear momentum <> 0

     Linear momentum :    0.3042341967   -0.1323341147    0.0176713349

     Writing output data file ms2.save
 ****** END OF FORCE_ESF COMPUTATION ******
     Check: negative starting charge=   -0.000546
     NEW-OLD atomic charge density approx. for the potential
     Check: negative starting charge=   -0.000538

     negative rho (up, down):  0.357E-02 0.000E+00
 ****** END OF ADD_ESF COMPUTATION ******

     total cpu time spent up to now is      348.9 secs

     per-process dynamical memory:    15.3 Mb

     Self-consistent Calculation

     iteration #  1     ecut=    25.00 Ry     beta=0.70
     Davidson diagonalization with overlap
     ethr =  1.00E-06,  avg # of iterations =  4.0

     negative rho (up, down):  0.353E-02 0.000E+00

     total cpu time spent up to now is      349.1 secs

     total energy              =     -23.72418939 Ry
     Harris-Foulkes estimate   =     -23.72445270 Ry
     estimated scf accuracy    <       0.00051170 Ry

     iteration #  2     ecut=    25.00 Ry     beta=0.70
     Davidson diagonalization with overlap
     ethr =  6.40E-06,  avg # of iterations =  2.0

     negative rho (up, down):  0.356E-02 0.000E+00

     total cpu time spent up to now is      349.3 secs

     total energy              =     -23.72428803 Ry
     Harris-Foulkes estimate   =     -23.72439943 Ry
     estimated scf accuracy    <       0.00021346 Ry

     iteration #  3     ecut=    25.00 Ry     beta=0.70
     Davidson diagonalization with overlap
     ethr =  2.67E-06,  avg # of iterations =  2.0

     negative rho (up, down):  0.356E-02 0.000E+00

     total cpu time spent up to now is      349.4 secs

     total energy              =     -23.72434070 Ry
     Harris-Foulkes estimate   =     -23.72434393 Ry
     estimated scf accuracy    <       0.00001227 Ry

     iteration #  4     ecut=    25.00 Ry     beta=0.70
     Davidson diagonalization with overlap
     ethr =  1.53E-07,  avg # of iterations =  2.0

     negative rho (up, down):  0.356E-02 0.000E+00

     total cpu time spent up to now is      349.5 secs

     End of self-consistent calculation

          k = 0.0000 0.0000 0.0000 (  4193 PWs)   bands (ev):

   -21.1888 -11.5518 -10.5394  -6.8564

!    total energy              =     -23.72434310 Ry
     Harris-Foulkes estimate   =     -23.72434296 Ry
     estimated scf accuracy    <       0.00000032 Ry

     convergence has been achieved in   4 iterations

     Forces acting on atoms (Ry/au):

     atom    1 type  1   force =     0.26023126    0.06274261   -0.10747586
     atom    2 type  2   force =     0.05616112   -0.01375120   -0.05563511
     atom    3 type  2   force =     0.04293813   -0.00822653    0.03366102
     atom    4 type  2   force =     0.05366744    0.00565322    0.04066082

     Total force =     0.311859     Total SCF correction =     0.000690

     Entering Dynamics:    iteration =    96
                           time      =   0.0929 pico-seconds


ATOMIC_POSITIONS (angstrom)
N        4.515427344   4.218915509   4.285364475
H        3.917654849   4.359013707   5.139976394
H        4.239951928   3.345616446   3.825136879
H        4.103541770   4.865463465   3.552233069


     kinetic energy (Ekin) =     0.00901840 Ry
     temperature           =   316.42023229 K 
     Ekin + Etot (const)   =   -23.71532470 Ry
     Message from routine dynamics:
     Total linear momentum <> 0

     Linear momentum :    0.2993212616   -0.1012389844   -0.1137337189

     Writing output data file ms2.save
 ****** END OF FORCE_ESF COMPUTATION ******
     Check: negative starting charge=   -0.000538
     NEW-OLD atomic charge density approx. for the potential
     Check: negative starting charge=   -0.000534

     negative rho (up, down):  0.360E-02 0.000E+00
 ****** END OF ADD_ESF COMPUTATION ******

     total cpu time spent up to now is      352.6 secs

     per-process dynamical memory:    15.3 Mb

     Self-consistent Calculation

     iteration #  1     ecut=    25.00 Ry     beta=0.70
     Davidson diagonalization with overlap
     ethr =  1.00E-06,  avg # of iterations =  4.0

     negative rho (up, down):  0.354E-02 0.000E+00

     total cpu time spent up to now is      352.7 secs

     total energy              =     -23.75279405 Ry
     Harris-Foulkes estimate   =     -23.75278485 Ry
     estimated scf accuracy    <       0.00018640 Ry

     iteration #  2     ecut=    25.00 Ry     beta=0.70
     Davidson diagonalization with overlap
     ethr =  2.33E-06,  avg # of iterations =  2.0

     negative rho (up, down):  0.356E-02 0.000E+00

     total cpu time spent up to now is      352.9 secs

     total energy              =     -23.75281324 Ry
     Harris-Foulkes estimate   =     -23.75283842 Ry
     estimated scf accuracy    <       0.00006075 Ry

     iteration #  3     ecut=    25.00 Ry     beta=0.70
     Davidson diagonalization with overlap
     ethr =  7.59E-07,  avg # of iterations =  2.0

     negative rho (up, down):  0.356E-02 0.000E+00

     total cpu time spent up to now is      353.1 secs

     total energy              =     -23.75282968 Ry
     Harris-Foulkes estimate   =     -23.75283180 Ry
     estimated scf accuracy    <       0.00001086 Ry

     iteration #  4     ecut=    25.00 Ry     beta=0.70
     Davidson diagonalization with overlap
     ethr =  1.36E-07,  avg # of iterations =  2.0

     negative rho (up, down):  0.356E-02 0.000E+00

     total cpu time spent up to now is      353.2 secs

     End of self-consistent calculation

          k = 0.0000 0.0000 0.0000 (  4193 PWs)   bands (ev):

   -21.1914 -11.3995 -10.6991  -6.9269

!    total energy              =     -23.75283140 Ry
     Harris-Foulkes estimate   =     -23.75283140 Ry
     estimated scf accuracy    <       0.00000004 Ry

     convergence has been achieved in   4 iterations

     Forces acting on atoms (Ry/au):

     atom    1 type  1   force =     0.25015895    0.07240002   -0.09989037
     atom    2 type  2   force =     0.06414881   -0.01283463   -0.05607133
     atom    3 type  2   force =     0.04190240   -0.00360634    0.02319140
     atom    4 type  2   force =     0.05802201   -0.01060968    0.04058899

     Total force =     0.304395     Total SCF correction =     0.000284

     Entering Dynamics:    iteration =    97
                           time      =   0.0939 pico-seconds


ATOMIC_POSITIONS (angstrom)
N        4.521814166   4.218863113   4.278615422
H        3.900966022   4.341228446   5.115083862
H        4.252381111   3.329811418   3.843486438
H        4.108510786   4.890330539   3.572431368


     kinetic energy (Ekin) =     0.01220589 Ry
     temperature           =   428.25686832 K 
     Ekin + Etot (const)   =   -23.74062551 Ry
     Message from routine dynamics:
     Total linear momentum <> 0

     Linear momentum :    0.2447143149   -0.0258644213   -0.2191714882

     Writing output data file ms2.save
 ****** END OF FORCE_ESF COMPUTATION ******
     Check: negative starting charge=   -0.000534
     NEW-OLD atomic charge density approx. for the potential
     Check: negative starting charge=   -0.000532

     negative rho (up, down):  0.363E-02 0.000E+00
 ****** END OF ADD_ESF COMPUTATION ******

     total cpu time spent up to now is      356.2 secs

     per-process dynamical memory:    15.3 Mb

     Self-consistent Calculation

     iteration #  1     ecut=    25.00 Ry     beta=0.70
     Davidson diagonalization with overlap
     ethr =  1.00E-06,  avg # of iterations =  4.0

     negative rho (up, down):  0.356E-02 0.000E+00

     total cpu time spent up to now is      356.4 secs

     total energy              =     -23.78534605 Ry
     Harris-Foulkes estimate   =     -23.78527164 Ry
     estimated scf accuracy    <       0.00016017 Ry

     iteration #  2     ecut=    25.00 Ry     beta=0.70
     Davidson diagonalization with overlap
     ethr =  2.00E-06,  avg # of iterations =  1.0

     negative rho (up, down):  0.356E-02 0.000E+00

     total cpu time spent up to now is      356.5 secs

     total energy              =     -23.78536102 Ry
     Harris-Foulkes estimate   =     -23.78535304 Ry
     estimated scf accuracy    <       0.00001696 Ry

     iteration #  3     ecut=    25.00 Ry     beta=0.70
     Davidson diagonalization with overlap
     ethr =  2.12E-07,  avg # of iterations =  2.0

     negative rho (up, down):  0.356E-02 0.000E+00

     total cpu time spent up to now is      356.7 secs

     total energy              =     -23.78536189 Ry
     Harris-Foulkes estimate   =     -23.78536329 Ry
     estimated scf accuracy    <       0.00000307 Ry

     iteration #  4     ecut=    25.00 Ry     beta=0.70
     Davidson diagonalization with overlap
     ethr =  3.84E-08,  avg # of iterations =  2.0

     negative rho (up, down):  0.356E-02 0.000E+00

     total cpu time spent up to now is      356.8 secs

     End of self-consistent calculation

          k = 0.0000 0.0000 0.0000 (  4193 PWs)   bands (ev):

   -21.2552 -11.2876 -10.9125  -7.0000

!    total energy              =     -23.78536255 Ry
     Harris-Foulkes estimate   =     -23.78536266 Ry
     estimated scf accuracy    <       0.00000016 Ry

     convergence has been achieved in   4 iterations

     Forces acting on atoms (Ry/au):

     atom    1 type  1   force =     0.24875638    0.06948282   -0.09287983
     atom    2 type  2   force =     0.06625813   -0.00970413   -0.04554678
     atom    3 type  2   force =     0.04214942    0.00442773    0.01207588
     atom    4 type  2   force =     0.05821654   -0.02067729    0.03040316

     Total force =     0.297617     Total SCF correction =     0.000223

     Entering Dynamics:    iteration =    98
                           time      =   0.0948 pico-seconds


ATOMIC_POSITIONS (angstrom)
N        4.525700432   4.221582223   4.269838286
H        3.887559976   4.323395828   5.082165733
H        4.262377767   3.313703564   3.863213035
H        4.115970121   4.913276588   3.598980760


     kinetic energy (Ekin) =     0.01581209 Ry
     temperature           =   554.78397800 K 
     Ekin + Etot (const)   =   -23.76955046 Ry
     Message from routine dynamics:
     Total linear momentum <> 0

     Linear momentum :    0.1588064622    0.0732691690   -0.2970761477

     Writing output data file ms2.save
 ****** END OF FORCE_ESF COMPUTATION ******
     Check: negative starting charge=   -0.000532
     NEW-OLD atomic charge density approx. for the potential
     Check: negative starting charge=   -0.000536

     negative rho (up, down):  0.365E-02 0.000E+00
 ****** END OF ADD_ESF COMPUTATION ******

     total cpu time spent up to now is      360.0 secs

     per-process dynamical memory:    15.3 Mb

     Self-consistent Calculation

     iteration #  1     ecut=    25.00 Ry     beta=0.70
     Davidson diagonalization with overlap
     ethr =  1.00E-06,  avg # of iterations =  4.0

     negative rho (up, down):  0.357E-02 0.000E+00

     total cpu time spent up to now is      360.2 secs

     total energy              =     -23.81968263 Ry
     Harris-Foulkes estimate   =     -23.81971151 Ry
     estimated scf accuracy    <       0.00036046 Ry

     iteration #  2     ecut=    25.00 Ry     beta=0.70
     Davidson diagonalization with overlap
     ethr =  4.51E-06,  avg # of iterations =  2.0

     negative rho (up, down):  0.355E-02 0.000E+00

     total cpu time spent up to now is      360.3 secs

     total energy              =     -23.81972507 Ry
     Harris-Foulkes estimate   =     -23.81979146 Ry
     estimated scf accuracy    <       0.00014508 Ry

     iteration #  3     ecut=    25.00 Ry     beta=0.70
     Davidson diagonalization with overlap
     ethr =  1.81E-06,  avg # of iterations =  2.0

     negative rho (up, down):  0.356E-02 0.000E+00

     total cpu time spent up to now is      360.5 secs

     total energy              =     -23.81976383 Ry
     Harris-Foulkes estimate   =     -23.81976568 Ry
     estimated scf accuracy    <       0.00001620 Ry

     iteration #  4     ecut=    25.00 Ry     beta=0.70
     Davidson diagonalization with overlap
     ethr =  2.02E-07,  avg # of iterations =  2.0

     negative rho (up, down):  0.356E-02 0.000E+00

     total cpu time spent up to now is      360.6 secs

     End of self-consistent calculation

          k = 0.0000 0.0000 0.0000 (  4193 PWs)   bands (ev):

   -21.3812 -11.3081 -11.0805  -7.0751

!    total energy              =     -23.81976615 Ry
     Harris-Foulkes estimate   =     -23.81976617 Ry
     estimated scf accuracy    <       0.00000014 Ry

     convergence has been achieved in   4 iterations

     Forces acting on atoms (Ry/au):

     atom    1 type  1   force =     0.25646369    0.05434639   -0.08618868
     atom    2 type  2   force =     0.06236444   -0.00526050   -0.02631204
     atom    3 type  2   force =     0.04350839    0.01479490    0.00080572
     atom    4 type  2   force =     0.05421730   -0.02293729    0.01145002

     Total force =     0.294065     Total SCF correction =     0.000566

     Entering Dynamics:    iteration =    99
                           time      =   0.0958 pico-seconds


ATOMIC_POSITIONS (angstrom)
N        4.527014256   4.226629856   4.259790491
H        3.876374612   4.306627605   5.046545305
H        4.270317697   3.299962952   3.882189420
H        4.124604991   4.933655094   3.627918291


     kinetic energy (Ekin) =     0.01823480 Ry
     temperature           =   639.78763026 K 
     Ekin + Etot (const)   =   -23.80153135 Ry
     Message from routine dynamics:
     Total linear momentum <> 0

     Linear momentum :    0.0646897191    0.1641447341   -0.3482887082

     Writing output data file ms2.save
 ****** END OF FORCE_ESF COMPUTATION ******
     Check: negative starting charge=   -0.000536
     NEW-OLD atomic charge density approx. for the potential
     Check: negative starting charge=   -0.000548

     negative rho (up, down):  0.367E-02 0.000E+00
 ****** END OF ADD_ESF COMPUTATION ******

     total cpu time spent up to now is      363.6 secs

     per-process dynamical memory:    15.3 Mb

     Self-consistent Calculation

     iteration #  1     ecut=    25.00 Ry     beta=0.70
     Davidson diagonalization with overlap
     ethr =  1.00E-06,  avg # of iterations =  5.0

     negative rho (up, down):  0.358E-02 0.000E+00

     total cpu time spent up to now is      363.8 secs

     total energy              =     -23.85326523 Ry
     Harris-Foulkes estimate   =     -23.85341275 Ry
     estimated scf accuracy    <       0.00053770 Ry

     iteration #  2     ecut=    25.00 Ry     beta=0.70
     Davidson diagonalization with overlap
     ethr =  6.72E-06,  avg # of iterations =  2.0

     negative rho (up, down):  0.357E-02 0.000E+00

     total cpu time spent up to now is      364.0 secs

     total energy              =     -23.85334563 Ry
     Harris-Foulkes estimate   =     -23.85346743 Ry
     estimated scf accuracy    <       0.00025066 Ry

     iteration #  3     ecut=    25.00 Ry     beta=0.70
     Davidson diagonalization with overlap
     ethr =  3.13E-06,  avg # of iterations =  2.0

     negative rho (up, down):  0.357E-02 0.000E+00

     total cpu time spent up to now is      364.1 secs

     total energy              =     -23.85340886 Ry
     Harris-Foulkes estimate   =     -23.85340972 Ry
     estimated scf accuracy    <       0.00001566 Ry

     iteration #  4     ecut=    25.00 Ry     beta=0.70
     Davidson diagonalization with overlap
     ethr =  1.96E-07,  avg # of iterations =  2.0

     negative rho (up, down):  0.358E-02 0.000E+00

     total cpu time spent up to now is      364.3 secs

     End of self-consistent calculation

          k = 0.0000 0.0000 0.0000 (  4193 PWs)   bands (ev):

   -21.5454 -11.5623 -11.0631  -7.1406

!    total energy              =     -23.85341110 Ry
     Harris-Foulkes estimate   =     -23.85341111 Ry
     estimated scf accuracy    <       0.00000024 Ry

     convergence has been achieved in   4 iterations

     Forces acting on atoms (Ry/au):

     atom    1 type  1   force =     0.27157063    0.03083041   -0.07849358
     atom    2 type  2   force =     0.05395795   -0.00063604   -0.00276903
     atom    3 type  2   force =     0.04514516    0.02473625   -0.01077153
     atom    4 type  2   force =     0.04669012   -0.01722744   -0.01323341

     Total force =     0.298663     Total SCF correction =     0.000755

     Entering Dynamics:    iteration =   100
                           time      =   0.0968 pico-seconds


ATOMIC_POSITIONS (angstrom)
N        4.526346047   4.232750541   4.249252393
H        3.865752881   4.291408597   5.014655340
H        4.277199923   3.290567493   3.898250110
H        4.132691874   4.952131650   3.653881579


     kinetic energy (Ekin) =     0.01746914 Ry
     temperature           =   612.92336860 K 
     Ekin + Etot (const)   =   -23.83594196 Ry
     Message from routine dynamics:
     Total linear momentum <> 0

     Linear momentum :   -0.0135022194    0.2158591228   -0.3728357304
 ****** END OF FORCE_ESF COMPUTATION ******
