96
Atoms. Timestep: 0
1 4.92184 4.99955 1.10607
2 5.87562 5.31968 0.882671
2 4.89414 4.11889 0.645414
1 0.087651 3.99797 0.245184
2 9.67555 3.23856 0.737637
2 0.340165 3.71655 9.21814
1 8.38818 2.573 3.96996
2 7.38874 2.34291 3.97124
2 8.68794 2.13782 4.79739
1 6.99828 7.16643 4.02219
2 7.74896 7.30105 3.40414
2 7.23197 6.2987 4.49938
1 4.30535 0.916065 2.3108
2 4.68159 1.45689 1.56489
2 4.4779 9.86373 2.16212
1 3.14062 6.90612 0.699556
2 2.41605 6.59745 1.28207
2 3.73301 6.08469 0.657627
1 7.1624 4.36166 7.67988
2 7.36135 3.41024 8.00031
2 7.41952 4.98991 8.45256
1 9.36564 1.3965 6.75559
2 9.81332 2.16155 7.15832
2 8.71664 1.12538 7.41768
1 4.89052 4.32576 3.84205
2 3.89376 4.30854 3.95064
2 4.94617 4.51425 2.85174
1 5.69164 1.71379 4.31048
2 5.22868 2.58155 4.362
2 5.11925 1.1763 3.6358
1 0.560959 0.04191 4.48207
2 1.22153 9.14244 4.55287
2 9.8315 0.016189 5.27461
1 9.12423 1.57913 1.43075
2 0.200064 1.3827 1.56565
2 8.94687 1.87921 2.37587
1 3.60233 9.72656 6.28367
2 4.48754 9.64862 5.86449
2 3.04926 9.0688 5.80336
1 7.29087 1.81607 9.09198
2 7.88001 1.75951 0.02152
2 7.24194 0.81395 8.91329
1 9.18314 7.75978 2.61797
2 0.075591 7.18752 2.47016
2 9.48355 8.60447 3.11903
1 0.87767 3.52006 7.51883
2 0.962603 4.13061 6.7713
2 1.69471 2.95669 7.60499
1 4.62668 4.48511 6.6691
2 5.38427 4.58313 7.20087
2 4.95972 4.66925 5.77441
1 6.88964 9.31587 5.70765
2 6.85941 8.51784 5.1155
2 6.3806 0.188753 5.26329
1 8.08052 4.96131 5.28832
2 8.06574 4.09021 4.78145
2 7.74923 4.80814 6.19755
1 3.25954 2.45214 7.63482
2 3.32317 1.53041 7.32282
2 3.80257 3.04928 7.02057
1 1.20123 5.99193 1.97923
2 0.666072 5.46199 1.26324
2 1.51867 5.2585 2.6437
1 1.65626 1.67144 2.5858
2 2.55835 1.39687 2.33422
2 1.33219 1.08924 3.37297
1 2.40391 7.92663 4.59916
2 2.08863 7.10383 5.01211
2 3.11255 7.72192 3.87463
1 6.67101 9.16954 8.28285
2 5.71095 9.06821 8.68062
2 6.54553 9.09399 7.29062
1 4.44039 8.03938 2.81419
2 5.24755 7.65412 3.17126
2 4.08828 7.45277 2.07593
1 1.15049 5.76826 5.84439
2 1.07629 5.94961 6.83796
2 0.18347 5.82068 5.59405
1 2.06166 4.19419 3.77712
2 1.88257 3.32656 3.24396
2 1.68341 4.11446 4.64607
1 7.55325 5.74269 0.194948
2 8.42061 5.23339 0.333538
2 7.74646 6.70205 0.233986
1 1.11835 6.61254 8.46938
2 0.435993 7.2427 8.80025
2 1.97268 6.7231 8.90825
1 4.03873 8.90136 8.96688
2 3.61664 8.11219 9.39391
2 3.66549 9.13899 8.06169
1 8.95403 8.32467 9.47681
2 8.12392 8.66407 9.0661
2 8.96316 8.41317 0.541945
1 4.85032 2.49478 0.151704
2 4.12691 2.45632 9.29897
2 5.64233 2.12865 9.55764
96
Atoms. Timestep: 1
1 4.92727 4.99807 1.10311
2 5.8091 5.31459 0.907082
2 4.87584 4.14663 0.668772
1 0.0879696 4.00136 0.245461
2 9.67969 3.21268 0.714004
2 0.330104 3.69049 9.23813
1 8.38344 2.57032 3.97266
2 7.4483 2.36695 3.95282
2 8.7025 2.15456 4.77365
1 7.00052 7.16333 4.02288
2 7.7292 7.30191 3.41785
2 7.21584 6.34759 4.47504
1 4.30405 0.919383 2.3125
2 4.67945 1.40089 1.57531
2 4.49871 9.86641 2.12365
1 3.1415 6.90126 0.700922
2 2.42165 6.62275 1.26703
2 3.71536 6.13692 0.648827
1 7.16363 4.36103 7.68278
2 7.35399 3.47724 7.99733
2 7.40643 4.93255 8.41125
1 9.36564 1.39717 6.75642
2 9.80717 2.14949 7.15051
2 8.72183 1.12673 7.4111
1 4.89012 4.32591 3.84168
2 3.89608 4.30811 3.95124
2 4.94811 4.51356 2.85556
1 5.68785 1.71293 4.30737
2 5.24648 2.56036 4.3647
2 5.16366 1.21106 3.68321
1 0.561734 0.04134 4.48147
2 1.17244 9.17553 4.57743
2 9.86953 -0.00795114 5.25822
1 9.12799 1.58038 1.43858
2 0.193978 1.36645 1.49965
2 8.89178 1.87708 2.31745
1 3.60282 9.72522 6.28224
2 4.46611 9.65182 5.87534
2 3.06277 9.08699 5.81614
1 7.29421 1.80798 9.09551
2 7.86064 1.82131 0.00201036
2 7.2088 0.880091 8.8765
1 9.18089 7.76224 2.61874
2 0.0940707 7.21978 2.49064
2 9.50068 8.53416 3.08576
1 0.875826 3.51882 7.52121
2 1.0056 4.10388 6.77482
2 1.68119 3.00333 7.56495
1 4.62675 4.48532 6.66704
2 5.39877 4.58315 7.2244
2 4.94493 4.66578 5.78249
1 6.88939 9.31611 5.70772
2 6.84471 8.56412 5.11716
2 6.3985 0.138911 5.25805
1 8.08108 4.96175 5.28678
2 8.05428 4.11759 4.8363
2 7.75266 4.77498 6.16627
1 3.2595 2.45396 7.63539
2 3.34509 1.56183 7.29921
2 3.78152 2.98739 7.03605
1 1.20004 5.98567 1.97904
2 0.706947 5.50197 1.31638
2 1.49548 5.31534 2.59516
1 1.65411 1.67136 2.58726
2 2.53781 1.37544 2.36876
2 1.38721 1.11198 3.31671
1 2.40502 7.92927 4.59775
2 2.1267 7.0937 4.97272
2 3.05594 7.69111 3.93758
1 6.66633 9.16895 8.28258
2 5.78454 9.07526 8.64302
2 6.54737 9.09705 7.33553
1 4.43818 8.04069 2.81349
2 5.23673 7.62719 3.14149
2 4.13524 7.45848 2.1167
1 1.14493 5.76956 5.84902
2 1.11624 5.93884 6.7907
2 0.230376 5.8117 5.56965
1 2.06299 4.19338 3.7731
2 1.87707 3.37462 3.31342
2 1.66938 4.07777 4.63794
1 7.5536 5.74097 0.194978
2 8.3873 5.29001 0.328575
2 7.77443 6.67136 0.237924
1 1.1166 6.60947 8.46564
2 0.501303 7.24626 8.82916
2 1.93384 6.76883 8.93784
1 4.04272 8.90451 8.96844
2 3.5855 8.13751 9.31324
2 3.63499 9.06446 8.11732
1 8.95748 8.32245 9.47155
2 8.13002 8.66835 9.13706
2 8.90232 8.44309 0.554516
1 4.84909 2.49373 0.147528
2 4.16382 2.46156 9.34499
2 5.62502 2.1408 9.57711
96
Atoms. Timestep: 2
1 4.92758 4.99801 1.10325
2 5.80925 5.31374 0.905262
2 4.87518 4.14563 0.670903
1 0.0876204 4.00161 0.245748
2 9.68096 3.21096 0.711911
2 0.332047 3.69362 9.23803
1 8.38312 2.57027 3.97286
2 7.44857 2.36419 3.95334
2 8.70437 2.15244 4.77189
1 7.00033 7.1633 4.02281
2 7.72954 7.3033 3.41875
2 7.21684 6.3482 4.47554
1 4.30395 0.919329 2.31245
2 4.6765 1.39989 1.5732
2 4.4964 9.86597 2.12318
1 3.14184 6.90127 0.700447
2 2.42018 6.62342 1.26457
2 3.71605 6.137 0.65136
1 7.16377 4.36093 7.6829
2 7.35181 3.47718 7.99888
2 7.40385 4.93266 8.41208
1 9.36545 1.39715 6.75623
2 9.80741 2.14931 7.1501
2 8.7219 1.12688 7.41123
1 4.88898 4.32638 3.84065
2 3.90225 4.30671 3.95289
2 4.9538 4.51143 2.86591
1 5.68797 1.71267 4.30774
2 5.24971 2.56172 4.36493
2 5.16446 1.21415 3.68033
1 0.561693 0.0410272 4.48105
2 1.17347 9.17643 4.5794
2 9.8721 -0.00413725 5.25992
1 9.12783 1.58058 1.43845
2 0.193802 1.36705 1.50117
2 8.88997 1.87735 2.31685
1 3.60282 9.72508 6.28251
2 4.46583 9.65306 5.87477
2 3.06234 9.08873 5.81434
1 7.29444 1.80799 9.0955
2 7.86088 1.81952 0.0020239
2 7.20677 0.880434 8.87598
1 9.18085 7.76249 2.61866
2 0.0932969 7.21911 2.49001
2 9.50179 8.53381 3.08587
1 0.875595 3.51835 7.52108
2 1.00633 4.10715 6.77781
2 1.68413 3.00817 7.5682
1 4.62696 4.48522 6.66685
2 5.3993 4.58274 7.22382
2 4.94426 4.66784 5.78243
1 6.88878 9.316 5.70759
2 6.84718 8.56488 5.11571
2 6.40361 0.14067 5.2546
1 8.08106 4.96203 5.28672
2 8.05699 4.11821 4.83546
2 7.75264 4.7735 6.16583
1 3.25938 2.45337 7.63552
2 3.34696 1.56287 7.29557
2 3.7819 2.9902 7.03968
1 1.19959 5.98535 1.9792
2 0.709332 5.49905 1.31634
2 1.49575 5.31696 2.59707
1 1.65434 1.67138 2.58742
2 2.53836 1.37527 2.37049
2 1.38585 1.11178 3.3161
1 2.40474 7.92929 4.59811
2 2.12748 7.09247 4.97104
2 3.0564 7.69361 3.93779
1 6.66631 9.16911 8.28337
2 5.78289 9.07389 8.63936
2 6.55213 9.09781 7.33569
1 4.4384 8.04054 2.81367
2 5.23696 7.62619 3.14057
2 4.13613 7.46081 2.11454
1 1.14464 5.76943 5.8493
2 1.11729 5.94303 6.79022
2 0.229877 5.812 5.5707
1 2.0634 4.19301 3.77263
2 1.87614 3.37322 3.31535
2 1.66863 4.08103 4.63741
1 7.55365 5.74083 0.194981
2 8.38695 5.28917 0.328693
2 7.77549 6.67104 0.236517
1 1.11654 6.60968 8.46539
2 0.500435 7.2459 8.82853
2 1.93235 6.76742 8.94058
1 4.04314 8.90463 8.96821
2 3.58526 8.1395 9.31627
2 3.63309 9.06346 8.11801
1 8.95753 8.32216 9.47171
2 8.13066 8.66815 9.13583
2 8.90201 8.44549 0.554311
1 4.84898 2.49367 0.147432
2 4.16445 2.46149 9.34414
2 5.62613 2.14341 9.57701
96
Atoms. Timestep: 3
1 4.92809 4.99791 1.10349
2 5.80949 5.31233 0.902254
2 4.8741 4.144 0.674354
1 0.0870436 4.00202 0.246222
2 9.68314 3.20815 0.708493
2 0.33524 3.69878 9.23791
1 8.3826 2.57019 3.97319
2 7.44902 2.35973 3.95423
2 8.70747 2.14888 4.76893
1 7.00001 7.16324 4.02268
2 7.73012 7.30553 3.42025
2 7.21842 6.3492 4.47641
1 4.30376 0.919234 2.31235
2 4.67164 1.39823 1.56975
2 4.49256 9.86525 2.12247
1 3.14237 6.9013 0.699639
2 2.41794 6.62449 1.26071
2 3.71715 6.13717 0.655345
1 7.16397 4.36077 7.6831
2 7.34838 3.47707 8.00137
2 7.39978 4.93293 8.41335
1 9.36513 1.3971 6.7559
2 9.80782 2.149 7.14949
2 8.72202 1.12708 7.41145
1 4.88726 4.3271 3.83922
2 3.90984 4.30433 3.95562
2 4.96327 4.50862 2.87889
1 5.68817 1.71225 4.30835
2 5.25499 2.56393 4.36526
2 5.16577 1.21909 3.6758
1 0.56161 0.0405089 4.48038
2 1.1752 9.17799 4.58267
2 9.87632 0.00214585 5.26265
1 9.12758 1.58092 1.43824
2 0.193493 1.36797 1.50367
2 8.88703 1.87775 2.31588
1 3.60282 9.72485 6.28294
2 4.46539 9.6551 5.87385
2 3.06165 9.09162 5.81136
1 7.29482 1.808 9.0955
2 7.86129 1.81662 0.0020359
2 7.20355 0.880999 8.87513
1 9.18078 7.76291 2.6185
2 0.0919713 7.21795 2.48896
2 9.50368 8.53322 3.08603
1 0.87521 3.51757 7.52086
2 1.00761 4.11266 6.78291
2 1.68882 3.01609 7.57373
1 4.6273 4.48508 6.66654
2 5.40019 4.58205 7.22284
2 4.94315 4.67124 5.78233
1 6.88779 9.31583 5.70735
2 6.85131 8.56608 5.11341
2 6.41202 0.143484 5.24898
1 8.08104 4.96249 5.28662
2 8.0613 4.11921 4.83416
2 7.75266 4.77122 6.16515
1 3.25917 2.45239 7.63573
2 3.35004 1.56455 7.28975
2 3.78258 2.99465 7.04562
1 1.19883 5.98484 1.97945
2 0.71308 5.49441 1.31632
2 1.4962 5.31953 2.60007
1 1.65473 1.67141 2.58766
2 2.53932 1.37505 2.3734
2 1.38363 1.11144 3.31509
1 2.40429 7.92932 4.5987
2 2.12873 7.09049 4.96838
2 3.0571 7.6976 3.93812
1 6.66628 9.16938 8.28466
2 5.78026 9.07165 8.63345
2 6.55987 9.09895 7.33601
1 4.43879 8.0403 2.81396
2 5.23733 7.62457 3.13913
2 4.1376 7.46455 2.11108
1 1.14417 5.76921 5.84974
2 1.11893 5.94984 6.78941
2 0.229059 5.81248 5.57238
1 2.0641 4.19241 3.77188
2 1.87456 3.37107 3.31833
2 1.66729 4.08623 4.63646
1 7.55373 5.74059 0.194999
2 8.38636 5.28778 0.328862
2 7.77728 6.6705 0.234095
1 1.11645 6.61004 8.46496
2 0.498874 7.2452 8.82746
2 1.92978 6.76508 8.94525
1 4.04383 8.90483 8.96785
2 3.58497 8.14273 9.32124
2 3.62992 9.06193 8.11918
1 8.95762 8.32167 9.47199
2 8.13184 8.66788 9.13366
2 8.90142 8.44951 0.55395
1 4.84881 2.49358 0.147268
2 4.16542 2.4613 9.34282
2 5.62787 2.14763 9.57681
96
Atoms. Timestep: 4
1 4.92881 4.99778 1.10382
2 5.80983 5.31037 0.898098
2 4.87261 4.1418 0.679124
1 0.0862468 4.00258 0.246876
2 9.6862 3.20431 0.703774
2 0.339587 3.70592 9.23778
1 8.38189 2.57006 3.97366
2 7.44964 2.35367 3.95548
2 8.71178 2.14398 4.76477
1 6.99956 7.16317 4.02248
2 7.73092 7.30855 3.4223
2 7.22052 6.35062 4.47764
1 4.30347 0.919101 2.3122
2 4.66488 1.39589 1.56502
2 4.48724 9.86425 2.12156
1 3.14309 6.90134 0.698502
2 2.41501 6.62594 1.25554
2 3.71865 6.13745 0.660739
1 7.16424 4.36054 7.68339
2 7.34374 3.47694 8.00474
2 7.39427 4.93332 8.41499
1 9.36468 1.39703 6.75545
2 9.80841 2.14853 7.14862
2 8.7222 1.12735 7.41175
1 4.88517 4.32803 3.83773
2 3.91562 4.30097 3.95936
2 4.97647 4.50614 2.88917
1 5.68845 1.71168 4.30921
2 5.26232 2.56692 4.36577
2 5.16757 1.22584 3.66978
1 0.561481 0.039785 4.47946
2 1.17761 9.1802 4.58713
2 9.8822 0.0109203 5.26633
1 9.12723 1.58139 1.43793
2 0.193043 1.3692 1.50711
2 8.88297 1.8783 2.31453
1 3.60282 9.72455 6.28352
2 4.46479 9.65794 5.87265
2 3.06072 9.09561 5.80728
1 7.29535 1.80802 9.0955
2 7.86188 1.81264 0.00202733
2 7.19913 0.881799 8.87395
1 9.18067 7.7635 2.61829
2 0.0900869 7.21632 2.48747
2 9.50636 8.53238 3.08625
1 0.874697 3.51649 7.52054
2 1.00931 4.12035 6.79016
2 1.69497 3.02693 7.58148
1 4.62779 4.4849 6.6661
2 5.40146 4.58109 7.22145
2 4.94159 4.67593 5.78221
1 6.88641 9.31561 5.70701
2 6.85705 8.56766 5.1104
2 6.42367 0.147275 5.24143
1 8.08103 4.96314 5.28646
2 8.06716 4.12058 4.83243
2 7.75275 4.76818 6.16422
1 3.2589 2.45105 7.636
2 3.35426 1.5669 7.28186
2 3.7835 3.00065 7.0538
1 1.19778 5.98412 1.9798
2 0.718143 5.4881 1.31637
2 1.49684 5.32303 2.60411
1 1.65529 1.67145 2.58798
2 2.54067 1.37479 2.37746
2 1.38058 1.11097 3.31367
1 2.40365 7.92936 4.59953
2 2.13044 7.08782 4.96475
2 3.05802 7.70306 3.9386
1 6.66624 9.16974 8.28644
2 5.77678 9.06859 8.62534
2 6.57046 9.10048 7.33657
1 4.43933 8.03997 2.81434
2 5.23785 7.62238 3.13718
2 4.13964 7.46968 2.1064
1 1.14351 5.7689 5.85036
2 1.12119 5.9592 6.78819
2 0.227947 5.81313 5.57466
1 2.06507 4.19157 3.77087
2 1.87234 3.36822 3.32234
2 1.66538 4.09335 4.63507
1 7.55385 5.74027 0.195031
2 8.38556 5.28583 0.329099
2 7.77978 6.66975 0.230675
1 1.11634 6.61054 8.46436
2 0.496641 7.24415 8.82595
2 1.92613 6.76184 8.95179
1 4.04478 8.9051 8.96735
2 3.58466 8.1472 9.32804
2 3.62554 9.05987 8.12087
1 8.95776 8.32099 9.47239
2 8.13354 8.66754 9.13062
2 8.90057 8.4551 0.553421
1 4.84859 2.49346 0.147033
2 4.16671 2.46096 9.34105
2 5.63021 2.15341 9.57654
96
Atoms. Timestep: 5
1 4.92973 4.99761 1.10423
2 5.81024 5.30785 0.892829
2 4.87074 4.13904 0.685185
1 0.0852398 4.00328 0.247702
2 9.69008 3.19956 0.697794
2 0.344958 3.715 9.23767
1 8.38097 2.56989 3.97426
2 7.45045 2.34612 3.95713
2 8.71728 2.13787 4.75943
1 6.999 7.16308 4.02223
2 7.73187 7.31231 3.42485
2 7.22312 6.35241 4.4792
1 4.30311 0.918932 2.31199
2 4.65625 1.39291 1.55909
2 4.48049 9.863 2.12054
1 3.14398 6.90139 0.697042
2 2.41152 6.62776 1.24919
2 3.72054 6.13789 0.667487
1 7.16456 4.36023 7.68377
2 7.33799 3.47681 8.00892
2 7.38739 4.93385 8.41694
1 9.36411 1.39693 6.75487
2 9.80922 2.14792 7.14746
2 8.72246 1.12774 7.41217
1 4.8829 4.32908 3.8365
2 3.91686 4.29667 3.9637
2 4.99311 4.50485 2.89231
1 5.68882 1.71096 4.31028
2 5.27165 2.57064 4.36652
2 5.16986 1.2343 3.66243
1 0.561304 0.0388565 4.47832
2 1.18066 9.18304 4.59264
2 9.88975 0.0222003 5.27083
1 9.12677 1.582 1.43754
2 0.192448 1.37078 1.51147
2 8.87784 1.87904 2.31278
1 3.60282 9.72417 6.28423
2 4.46406 9.6616 5.87121
2 3.05962 9.10063 5.8022
1 7.29602 1.80804 9.09551
2 7.86265 1.80761 0.00197437
2 7.19353 0.882846 8.87249
1 9.18054 7.76427 2.61802
2 0.0876331 7.21422 2.48554
2 9.50983 8.53127 3.08653
1 0.874095 3.51513 7.52014
2 1.01122 4.13013 6.79958
2 1.70223 3.04042 7.59137
1 4.62841 4.48466 6.66554
2 5.40309 4.57989 7.21965
2 4.93956 4.68187 5.78207
1 6.88464 9.31534 5.70654
2 6.86432 8.56957 5.10684
2 6.43849 0.151923 5.23224
1 8.08102 4.96395 5.28626
2 8.07453 4.12235 4.8303
2 7.75292 4.76441 6.16305
1 3.25856 2.44935 7.63634
2 3.35955 1.56998 7.272
2 3.78459 3.00805 7.06417
1 1.19642 5.9832 1.98024
2 0.72444 5.48019 1.31657
2 1.49768 5.32746 2.60912
1 1.656 1.6715 2.58839
2 2.54241 1.37453 2.38265
2 1.37678 1.11038 3.31186
1 2.40285 7.92942 4.60058
2 2.13263 7.08449 4.96019
2 3.05914 7.70994 3.93926
1 6.66619 9.17021 8.28867
2 5.77258 9.06478 8.61515
2 6.58372 9.10239 7.33745
1 4.44003 8.03955 2.81482
2 5.2385 7.61965 3.13477
2 4.14224 7.47614 2.1006
1 1.14267 5.76851 5.85117
2 1.12405 5.97101 6.78652
2 0.226547 5.81393 5.57751
1 2.06631 4.19051 3.76961
2 1.86952 3.36472 3.32738
2 1.66293 4.10235 4.63318
1 7.55401 5.73987 0.195072
2 8.38453 5.28333 0.329424
2 7.78298 6.66875 0.226286
1 1.11622 6.61119 8.46361
2 0.493743 7.24274 8.82402
2 1.92138 6.75771 8.96008
1 4.04598 8.90545 8.96672
2 3.58438 8.15289 9.3366
2 3.62002 9.05732 8.12308
1 8.95793 8.32011 9.47291
2 8.13576 8.66713 9.12672
2 8.89948 8.46221 0.552697
1 4.8483 2.4933 0.146724
2 4.16831 2.46045 9.33885
2 5.63312 2.16065 9.57624
96
Atoms. Timestep: 6
1 4.93087 4.99742 1.10472
2 5.81071 5.30478 0.886476
2 4.86853 4.13579 0.692483
1 0.0840359 4.00414 0.24869
2 9.69473 3.19403 0.690607
2 0.351191 3.72594 9.23764
1 8.37987 2.56964 3.975
2 7.45145 2.33722 3.95918
2 8.72393 2.1307 4.75293
1 6.99833 7.16298 4.02191
2 7.73294 7.31672 3.42782
2 7.22613 6.35457 4.48106
1 4.30266 0.918732 2.31171
2 4.64578 1.3893 1.55206
2 4.47237 9.86152 2.11949
1 3.14503 6.90144 0.695265
2 2.4076 6.62993 1.24181
2 3.72279 6.13853 0.675512
1 7.16493 4.35984 7.68425
2 7.33121 3.47668 8.01382
2 7.37923 4.93452 8.41914
1 9.36342 1.3968 6.75414
2 9.81029 2.14716 7.14596
2 8.72278 1.1283 7.41271
1 4.88056 4.33024 3.83565
2 3.91269 4.29156 3.96768
2 5.01229 4.50497 2.88741
1 5.68927 1.71011 4.31155
2 5.28292 2.57496 4.36761
2 5.17261 1.24437 3.65399
1 0.561074 0.0377252 4.47698
2 1.18427 9.18651 4.59904
2 9.899 0.035999 5.276
1 9.12623 1.58273 1.43707
2 0.191701 1.37271 1.51671
2 8.87167 1.87999 2.31061
1 3.60282 9.72373 6.28508
2 4.46322 9.66606 5.86961
2 3.05842 9.10657 5.79623
1 7.29682 1.80807 9.09552
2 7.8636 1.80158 0.0018484
2 7.18678 0.884154 8.87079
1 9.18038 7.76521 2.61769
2 0.084598 7.21165 2.48314
2 9.51409 8.52988 3.08689
1 0.873448 3.51351 7.51965
2 1.0131 4.14188 6.81122
2 1.71019 3.05624 7.60326
1 4.62917 4.48436 6.66487
2 5.4051 4.57847 7.21741
2 4.93704 4.68903 5.78194
1 6.88249 9.31504 5.70593
2 6.87302 8.57172 5.10293
2 6.45633 0.157284 5.22176
1 8.08103 4.96494 5.28601
2 8.08333 4.12454 4.82781
2 7.75319 4.75997 6.16165
1 3.25818 2.44733 7.63673
2 3.36582 1.57385 7.26032
2 3.78576 3.0167 7.07663
1 1.19478 5.98207 1.98075
2 0.731865 5.47079 1.31702
2 1.49873 5.33279 2.61501
1 1.65686 1.67154 2.58888
2 2.54451 1.37431 2.38895
2 1.37227 1.10966 3.30966
1 2.40189 7.92948 4.60185
2 2.13529 7.08058 4.95474
2 3.06045 7.71818 3.94013
1 6.66612 9.17078 8.29133
2 5.76786 9.0603 8.60303
2 6.59944 9.1047 7.33874
1 4.44088 8.03904 2.81539
2 5.23927 7.61643 3.13193
2 4.14538 7.48387 2.0938
1 1.14164 5.76804 5.85216
2 1.12749 5.98515 6.78431
2 0.224873 5.81489 5.5809
1 2.06781 4.18923 3.76812
2 1.86613 3.36062 3.33341
2 1.65998 4.11317 4.63075
1 7.5542 5.73937 0.195117
2 8.38325 5.28029 0.329862
2 7.78686 6.6675 0.220962
1 1.11609 6.61198 8.46269
2 0.490195 7.24097 8.82166
2 1.91551 6.75273 8.96999
1 4.04742 8.90586 8.96597
2 3.5842 8.15978 9.34678
2 3.61348 9.05435 8.1258
1 8.95813 8.31905 9.47355
2 8.13848 8.66664 9.12201
2 8.89821 8.47076 0.551746
1 4.84796 2.49311 0.14634
2 4.1702 2.45969 9.33624
2 5.63651 2.16926 9.57598
96
Atoms. Timestep: 7
1 4.93221 4.99719 1.10527
2 5.81122 5.30119 0.879066
2 4.86601 4.13211 0.700932
1 0.0826504 4.00513 0.249827
2 9.70009 3.18786 0.682278
2 0.358093 3.73864 9.2377
1 8.37858 2.56932 3.97587
2 7.45262 2.32716 3.96167
2 8.73168 2.12265 4.74531
1 6.99757 7.16287 4.02154
2 7.73407 7.32169 3.43114
2 7.2295 6.35706 4.48318
1 4.30214 0.918503 2.31135
2 4.63353 1.38508 1.54407
2 4.46296 9.85982 2.11851
1 3.14623 6.90149 0.693178
2 2.40341 6.63242 1.2336
2 3.72537 6.13942 0.684715
1 7.16534 4.35937 7.68486
2 7.32353 3.47657 8.01934
2 7.36991 4.93534 8.4215
1 9.36262 1.39663 6.75328
2 9.81164 2.14624 7.14406
2 8.72318 1.12908 7.4134
1 4.87817 4.33153 3.83506
2 3.90447 4.28587 3.96987
2 5.03236 4.50595 2.87769
1 5.68981 1.70913 4.31299
2 5.29606 2.57979 4.36911
2 5.17578 1.2559 3.64472
1 0.560787 0.0363953 4.47547
2 1.1884 9.19058 4.60613
2 9.90997 0.0523173 5.28164
1 9.12559 1.58359 1.43652
2 0.190798 1.37502 1.5228
2 8.86453 1.88121 2.30801
1 3.60281 9.72322 6.28603
2 4.46231 9.67131 5.86795
2 3.05719 9.11331 5.7895
1 7.29776 1.8081 9.09553
2 7.86475 1.79461 0.00161771
2 7.1789 0.885742 8.86888
1 9.18019 7.76633 2.61732
2 0.0809688 7.20863 2.48028
2 9.51916 8.52818 3.08732
1 0.872802 3.51167 7.51909
2 1.01471 4.15544 6.82506
2 1.71841 3.07396 7.61696
1 4.63006 4.484 6.66408
2 5.4075 4.57687 7.21472
2 4.93397 4.69735 5.78183
1 6.87997 9.31472 5.70516
2 6.88298 8.57401 5.09888
2 6.477 0.163193 5.21039
1 8.08104 4.96609 5.2857
2 8.09348 4.12714 4.825
2 7.75358 4.75493 6.16001
1 3.25777 2.44501 7.63717
2 3.37296 1.57856 7.247
2 3.78689 3.0264 7.09104
1 1.19287 5.98073 1.98132
2 0.740287 5.45999 1.31782
2 1.50002 5.33898 2.62168
1 1.65787 1.67158 2.58947
2 2.54695 1.37417 2.3963
2 1.36716 1.10881 3.30711
1 2.40077 7.92957 4.60332
2 2.13842 7.07617 4.94846
2 3.06195 7.72772 3.94126
1 6.66605 9.17144 8.29437
2 5.76282 9.05524 8.58915
2 6.61734 9.10739 7.34056
1 4.44187 8.03845 2.81603
2 5.24014 7.61276 3.12873
2 4.14904 7.49279 2.08614
1 1.14042 5.76747 5.85335
2 1.13151 6.00144 6.78147
2 0.222938 5.81597 5.58481
1 2.06955 4.18774 3.76641
2 1.8622 3.35601 3.34041
2 1.65655 4.12575 4.6277
1 7.55443 5.73879 0.195162
2 8.38173 5.27673 0.330445
2 7.79141 6.66598 0.214748
1 1.11596 6.61291 8.46163
2 0.486019 7.23883 8.81889
2 1.90852 6.74692 8.98135
1 4.04909 8.90633 8.96511
2 3.58419 8.16782 9.35843
2 3.60602 9.05102 8.12905
1 8.95836 8.3178 9.4743
2 8.14169 8.66607 9.11656
2 8.89679 8.48065 0.550534
1 4.84757 2.49289 0.145875
2 4.17237 2.45863 9.33326
2 5.64034 2.1791 9.57581
96
Atoms. Timestep: 8
1 4.93378 4.99691 1.10592
2 5.81171 5.2971 0.870631
2 4.86319 4.1281 0.710424
1 0.0811013 4.00625 0.251101
2 9.70605 3.1812 0.672888
2 0.365447 3.75298 9.2379
1 8.3771 2.56891 3.97688
2 7.45396 2.31613 3.96465
2 8.74046 2.11391 4.73661
1 6.99674 7.16277 4.02112
2 7.7352 7.3271 3.43469
2 7.23313 6.35984 4.48551
1 4.30154 0.91825 2.3109
2 4.61958 1.38028 1.53526
2 4.45238 9.85796 2.11774
1 3.14756 6.90154 0.690793
2 2.39912 6.63521 1.22477
2 3.72825 6.14061 0.694973
1 7.16577 4.35881 7.68559
2 7.31508 3.47649 8.02537
2 7.35955 4.9363 8.42396
1 9.3617 1.39641 6.75226
2 9.81332 2.14516 7.14168
2 8.72366 1.13015 7.41426
1 4.87567 4.33298 3.83451
2 3.895 4.27988 3.96866
2 5.05119 4.50689 2.86845
1 5.69045 1.70805 4.31457
2 5.31094 2.58498 4.37111
2 5.17931 1.26871 3.6349
1 0.560438 0.0348739 4.4738
2 1.19294 9.19518 4.61371
2 9.92266 0.0711335 5.28752
1 9.12486 1.58456 1.43588
2 0.189731 1.37774 1.52969
2 8.85647 1.88274 2.30495
1 3.60278 9.72267 6.28707
2 4.46136 9.67736 5.86632
2 3.05603 9.12069 5.78217
1 7.29881 1.80812 9.09555
2 7.86609 1.78676 0.00124892
2 7.16993 0.887627 8.86684
1 9.17997 7.76762 2.61691
2 0.0767329 7.20517 2.47693
2 9.52503 8.52617 3.08783
1 0.872201 3.50966 7.51845
2 1.01578 4.17058 6.84111
2 1.72646 3.09308 7.6322
1 4.63108 4.48358 6.66319
2 5.4103 4.57511 7.21153
2 4.93031 4.70676 5.78178
1 6.87711 9.3144 5.70421
2 6.89402 8.57636 5.09491
2 6.50022 0.169466 5.19855
1 8.08107 4.96739 5.28533
2 8.10486 4.13018 4.82193
2 7.7541 4.74937 6.15814
1 3.25736 2.44242 7.63765
2 3.38083 1.58414 7.23224
2 3.78788 3.03693 7.10723
1 1.1907 5.97917 1.98195
2 0.74955 5.44794 1.31906
2 1.50155 5.34601 2.62902
1 1.659 1.6716 2.59015
2 2.5497 1.37415 2.40467
2 1.36152 1.10783 3.30422
1 2.39951 7.92968 4.60497
2 2.14202 7.07135 4.94143
2 3.06363 7.73847 3.9427
1 6.66598 9.17219 8.29776
2 5.75765 9.04974 8.57376
2 6.63709 9.11046 7.34299
1 4.44298 8.03777 2.81673
2 5.24108 7.60871 3.12524
2 4.1532 7.50279 2.07777
1 1.13901 5.76683 5.85473
2 1.13608 6.01968 6.77793
2 0.220756 5.81716 5.5892
1 2.07154 4.18605 3.7645
2 1.85778 3.35097 3.34833
2 1.65271 4.14 4.62398
1 7.55469 5.73812 0.1952
2 8.37996 5.27264 0.331207
2 7.7966 6.66416 0.207697
1 1.11582 6.61399 8.46043
2 0.481241 7.23634 8.81571
2 1.90043 6.74033 8.99397
1 4.05097 8.90685 8.96414
2 3.58443 8.17697 9.37138
2 3.59779 9.04741 8.13282
1 8.95861 8.31637 9.47517
2 8.14536 8.66539 9.11043
2 8.89529 8.49177 0.549026
1 4.84713 2.49266 0.145329
2 4.17481 2.45719 9.32992
2 5.64452 2.19003 9.5758
96
Atoms. Timestep: 9
1 4.93557 4.99659 1.10665
2 5.81216 5.29254 0.861223
2 4.86014 4.12384 0.720835
1 0.0794085 4.0075 0.252499
2 9.71251 3.17424 0.66253
2 0.373016 3.76882 9.23826
1 8.37545 2.56838 3.97803
2 7.45545 2.30431 3.96814
2 8.75019 2.10471 4.7269
1 6.99584 7.16268 4.02066
2 7.73626 7.33284 3.43837
2 7.23693 6.36286 4.488
1 4.30086 0.917978 2.31034
2 4.60404 1.37492 1.52578
2 4.44077 9.85595 2.11728
1 3.14902 6.90159 0.688122
2 2.39488 6.63828 1.21554
2 3.73139 6.14215 0.70614
1 7.16621 4.35816 7.68647
2 7.30603 3.47645 8.03181
2 7.3483 4.9374 8.42644
1 9.36067 1.39613 6.75109
2 9.81536 2.14393 7.13876
2 8.72423 1.13158 7.41531
1 4.87301 4.33463 3.83376
2 3.88717 4.27388 3.9627
2 5.06683 4.50701 2.86434
1 5.69121 1.70687 4.31626
2 5.32742 2.59038 4.3737
2 5.18312 1.28261 3.62483
1 0.560022 0.0331716 4.47202
2 1.19781 9.20025 4.62154
2 9.93709 0.0923949 5.29339
1 9.12405 1.58564 1.43518
2 0.188494 1.38088 1.53734
2 8.84755 1.88463 2.30142
1 3.60275 9.72208 6.28818
2 4.4604 9.68416 5.86481
2 3.05504 9.12855 5.77439
1 7.29998 1.80815 9.09558
2 7.86763 1.77813 0.000708689
2 7.15992 0.889826 8.86473
1 9.17973 7.7691 2.61647
2 0.0718787 7.20129 2.47308
2 9.5317 8.52381 3.08845
1 0.871684 3.50751 7.51777
2 1.0161 4.18706 6.8593
2 1.73395 3.11305 7.64865
1 4.63223 4.48308 6.66221
2 5.41354 4.57322 7.2078
2 4.926 4.71717 5.7818
1 6.87392 9.31408 5.70307
2 6.90589 8.57865 5.09123
2 6.52567 0.175912 5.18666
1 8.08113 4.96884 5.28491
2 8.11735 4.13366 4.81864
2 7.75477 4.74338 6.15605
1 3.25698 2.43959 7.63818
2 3.38927 1.59064 7.21627
2 3.78861 3.04807 7.12499
1 1.18828 5.9774 1.98261
2 0.75947 5.43478 1.32085
2 1.50333 5.35381 2.63691
1 1.66025 1.67161 2.59092
2 2.55274 1.37432 2.41399
2 1.35547 1.10672 3.30102
1 2.39812 7.92982 4.6068
2 2.14609 7.0662 4.93372
2 3.06549 7.75035 3.9445
1 6.66591 9.17303 8.30145
2 5.75258 9.04391 8.55715
2 6.65833 9.1139 7.34611
1 4.44421 8.037 2.81749
2 5.24208 7.60435 3.12154
2 4.15784 7.51376 2.06886
1 1.13742 5.76612 5.85632
2 1.14118 6.03966 6.77359
2 0.218339 5.81845 5.59405
1 2.07376 4.18416 3.76243
2 1.8529 3.3456 3.35713
2 1.64852 4.15586 4.61951
1 7.55499 5.73736 0.195223
2 8.37793 5.26806 0.332189
2 7.80239 6.66203 0.199875
1 1.11569 6.61522 8.4591
2 0.475896 7.2335 8.81213
2 1.89124 6.73302 9.00762
1 4.05305 8.90739 8.96308
2 3.58498 8.18714 9.38543
2 3.58893 9.04359 8.13708
1 8.95887 8.31476 9.47614
2 8.14946 8.6646 9.10372
2 8.89377 8.50401 0.547189
1 4.84665 2.49242 0.144697
2 4.17749 2.45528 9.32627
2 5.64898 2.20186 9.57602
96
Atoms. Timestep: 10
1 4.93757 4.99622 1.10747
2 5.81253 5.28755 0.850935
2 4.8569 4.11942 0.73204
1 0.0775932 4.00888 0.254008
2 9.71935 3.16713 0.651307
2 0.380555 3.78599 9.2388
1 8.37364 2.56773 3.9793
2 7.45707 2.29192 3.97221
2 8.76075 2.09522 4.71627
1 6.99491 7.1626 4.02014
2 7.73722 7.33877 3.44207
2 7.24083 6.36607 4.49057
1 4.30012 0.917691 2.30966
2 4.58707 1.36902 1.51582
2 4.42828 9.85383 2.11727
1 3.15058 6.90163 0.685178
2 2.39085 6.64159 1.20616
2 3.73477 6.14409 0.718043
1 7.16664 4.35742 7.6875
2 7.29654 3.47644 8.03856
2 7.33634 4.93862 8.42887
1 9.35954 1.39578 6.74975
2 9.81779 2.14254 7.13522
2 8.72488 1.13343 7.41654
1 4.87014 4.33649 3.83274
2 3.88289 4.26804 3.95123
2 5.07802 4.50598 2.86765
1 5.6921 1.70563 4.31804
2 5.3453 2.59585 4.37694
2 5.18711 1.2974 3.61479
1 0.559534 0.0313038 4.47016
2 1.20291 9.20569 4.62941
2 9.95325 0.116007 5.29898
1 9.12316 1.58684 1.43439
2 0.187079 1.38447 1.54568
2 8.83785 1.88693 2.2974
1 3.60271 9.72146 6.28935
2 4.45946 9.6917 5.86353
2 3.05432 9.13669 5.76632
1 7.30125 1.80818 9.0956
2 7.86937 1.76879 -3.27335e-05
2 7.14892 0.892352 8.86261
1 9.17948 7.77076 2.616
2 0.0663969 7.19703 2.46873
2 9.53915 8.52108 3.08916
1 0.871282 3.50529 7.51707
2 1.01546 4.20457 6.87953
2 1.74058 3.13326 7.6659
1 4.63349 4.4825 6.66115
2 5.41723 4.57126 7.20348
2 4.92094 4.72851 5.7819
1 6.87044 9.31379 5.70172
2 6.9183 8.58077 5.08802
2 6.55293 0.182339 5.1751
1 8.08121 4.97042 5.28442
2 8.1308 4.1376 4.81518
2 7.75559 4.73705 6.15375
1 3.25665 2.43658 7.63875
2 3.39813 1.59805 7.19934
2 3.78896 3.05959 7.14404
1 1.18563 5.97541 1.98329
2 0.769839 5.42066 1.32329
2 1.50536 5.36234 2.64522
1 1.6616 1.67159 2.5918
2 2.55604 1.37472 2.4242
2 1.3491 1.10544 3.29753
1 2.39661 7.93 4.60878
2 2.15063 7.06082 4.92543
2 3.0675 7.76323 3.94672
1 6.66586 9.17396 8.30539
2 5.74779 9.0379 8.53964
2 6.68063 9.11767 7.34996
1 4.44553 8.03616 2.8183
2 5.24311 7.59974 3.1177
2 4.16295 7.52556 2.05957
1 1.13564 5.76533 5.8581
2 1.1468 6.06111 6.76839
2 0.215698 5.8198 5.59932
1 2.07622 4.1821 3.76021
2 1.8476 3.33997 3.36677
2 1.64407 4.17319 4.61425
1 7.55532 5.73652 0.195223
2 8.37563 5.263 0.333437
2 7.80876 6.65955 0.19136
1 1.11556 6.61658 8.45766
2 0.470025 7.23031 8.80816
2 1.881 6.72506 9.02207
1 4.05531 8.90797 8.96195
2 3.58593 8.19823 9.40034
2 3.57961 9.03966 8.14183
1 8.95912 8.31297 9.47723
2 8.15396 8.66367 9.09649
2 8.89231 8.51721 0.544994
1 4.84612 2.49217 0.143976
2 4.1804 2.45283 9.32232
2 5.65364 2.2144 9.57654
96
Atoms. Timestep: 11
1 4.9398 4.9958 1.10837
2 5.81281 5.28215 0.839901
2 4.85353 4.11491 0.743915
1 0.0756777 4.01039 0.255615
2 9.72643 3.16004 0.639337
2 0.387815 3.80429 9.23952
1 8.37168 2.56695 3.9807
2 7.45878 2.27916 3.9769
2 8.77203 2.08567 4.70481
1 6.99394 7.16254 4.01959
2 7.738 7.34476 3.44565
2 7.24475 6.36941 4.49317
1 4.29928 0.917396 2.30886
2 4.56885 1.36262 1.50552
2 4.41509 9.85163 2.11782
1 3.15223 6.90166 0.68198
2 2.38716 6.64511 1.19684
2 3.73837 6.14647 0.730487
1 7.16705 4.35659 7.68869
2 7.28679 3.47648 8.0455
2 7.32384 4.93996 8.4312
1 9.35832 1.39536 6.74824
2 9.82064 2.141 7.13101
2 8.72562 1.13578 7.41798
1 4.86706 4.33855 3.8315
2 3.88242 4.26237 3.93418
2 5.08455 4.50398 2.87775
1 5.69313 1.70434 4.31988
2 5.36435 2.60123 4.3809
2 5.19114 1.31283 3.60506
1 0.558972 0.0292907 4.46825
2 1.2081 9.21138 4.63708
2 9.97111 0.14182 5.30401
1 9.12219 1.58813 1.43354
2 0.185481 1.38854 1.55466
2 8.82745 1.8897 2.29286
1 3.60265 9.72083 6.29054
2 4.45859 9.69991 5.86256
2 3.05397 9.1449 5.75811
1 7.30262 1.80821 9.09563
2 7.87131 1.75884 -0.00100209
2 7.13702 0.895216 8.86057
1 9.1792 7.77259 2.61552
2 0.0602818 7.19242 2.46386
2 9.54737 8.51796 3.08999
1 0.871014 3.50304 7.51636
2 1.01373 4.22277 6.90165
2 1.74613 3.1531 7.68351
1 4.63487 4.48184 6.66003
2 5.42141 4.56923 7.1985
2 4.91508 4.74064 5.78212
1 6.8667 9.31354 5.70017
2 6.93093 8.58265 5.08543
2 6.58152 0.188565 5.1642
1 8.08134 4.97212 5.28387
2 8.14504 4.14197 4.81161
2 7.75658 4.73047 6.15126
1 3.2564 2.4334 7.63937
2 3.40722 1.60635 7.1817
2 3.78882 3.07126 7.16408
1 1.18277 5.97319 1.98399
2 0.78043 5.40575 1.32645
2 1.50763 5.3715 2.65382
1 1.66305 1.67153 2.59279
2 2.55955 1.3754 2.43523
2 1.34255 1.10401 3.2938
1 2.395 7.93022 4.61089
2 2.15563 7.05533 4.91666
2 3.06969 7.77701 3.94941
1 6.66584 9.17497 8.30953
2 5.74347 9.03184 8.52161
2 6.70357 9.12174 7.35456
1 4.44694 8.03524 2.81913
2 5.24417 7.59499 3.11382
2 4.16852 7.53803 2.05004
1 1.13368 5.76447 5.86009
2 1.15289 6.08374 6.76228
2 0.212841 5.82119 5.60501
1 2.0789 4.17987 3.75786
2 1.84191 3.3342 3.37718
2 1.6395 4.19189 4.60816
1 7.55569 5.73559 0.195191
2 8.37306 5.25748 0.334999
2 7.81566 6.65672 0.182242
1 1.11543 6.61809 8.45611
2 0.463679 7.22681 8.80382
2 1.86978 6.71653 9.03706