
     Program PWSCF v.4.3.2      starts on 12Dec2011 at 16: 8:20 

     This program is part of the open-source Quantum ESPRESSO suite
     for quantum simulation of materials; please cite
         "P. Giannozzi et al., J. Phys.:Condens. Matter 21 395502 (2009);
          URL http://www.quantum-espresso.org", 
     in publications or presentations arising from this work. More details at
     http://www.quantum-espresso.org/quote.php

     Parallel version (MPI), running on    16 processors
     R & G space division:  proc/pool =   16

     Current dimensions of program PWSCF are:
     Max number of different atomic species (ntypx) = 10
     Max number of k-points (npk) =  40000
     Max angular momentum in pseudopotentials (lmaxx) =  3
     Waiting for input...
     Reading input from stdin

     gamma-point specific algorithms are used
 XXXXXXXXXX EC SUPPORT ENABLED XXXXXXXXXX

     Subspace diagonalization in iterative solution of the eigenvalue problem:
     a serial algorithm will be used

 
     Parallelization info
     --------------------
     sticks:   dense  smooth     PW     G-vecs:    dense   smooth      PW
     Min        1339     536    134               148051    37396    4670
     Max        1342     538    135               148062    37478    4675
     Sum       21465    8585   2145              2368925   599161   74773
     Tot       10733    4293   1073
 

     Title: 
     Alanine                                                                    


     bravais-lattice index     =            0
     lattice parameter (alat)  =      30.0000  a.u.
     unit-cell volume          =   27000.0000 (a.u.)^3
     number of atoms/cell      =           13
     number of atomic types    =            7
     number of electrons       =        36.00
     number of Kohn-Sham states=           18
     kinetic-energy cutoff     =      30.0000  Ry
     charge density cutoff     =     300.0000  Ry
     convergence threshold     =      1.0E-08
     mixing beta               =       0.7000
     number of iterations used =            8  plain     mixing
     Exchange-correlation      =  SLA  PW   PBE  PBE ( 1 4 3 4 0)
     EXX-fraction              =        0.00
     nstep                     =          200


     celldm(1)=  30.000000  celldm(2)=   0.000000  celldm(3)=   0.000000
     celldm(4)=   0.000000  celldm(5)=   0.000000  celldm(6)=   0.000000

     crystal axes: (cart. coord. in units of alat)
               a(1) = (   1.000000   0.000000   0.000000 )  
               a(2) = (   0.000000   1.000000   0.000000 )  
               a(3) = (   0.000000   0.000000   1.000000 )  

     reciprocal axes: (cart. coord. in units 2 pi/alat)
               b(1) = (  1.000000  0.000000  0.000000 )  
               b(2) = (  0.000000  1.000000  0.000000 )  
               b(3) = (  0.000000  0.000000  1.000000 )  


     PseudoPot. # 1 for O  read from file:
     pseudo/O.pbe-van_bm.UPF
     MD5 check sum: ca2828d9fb1f294809e918903b7648d1
     Pseudo is Ultrasoft, Zval =  6.0
     Generated by new atomic code, or converted to UPF format
     Using radial grid of  737 points,  4 beta functions with: 
                l(1) =   0
                l(2) =   0
                l(3) =   1
                l(4) =   1
     Q(r) pseudized with  8 coefficients,  rinner =    0.800   0.800   0.800


     PseudoPot. # 2 for C  read from file:
     pseudo/C.pbe-van_bm.UPF
     MD5 check sum: 1a69bf6b8db32088f5b2163dbdb77a27
     Pseudo is Ultrasoft, Zval =  4.0
     Generated by new atomic code, or converted to UPF format
     Using radial grid of  721 points,  4 beta functions with: 
                l(1) =   0
                l(2) =   0
                l(3) =   1
                l(4) =   1
     Q(r) pseudized with  8 coefficients,  rinner =    0.800   0.800   0.800


     PseudoPot. # 3 for C  read from file:
     pseudo/C.pbe-van_bm.UPF
     MD5 check sum: 1a69bf6b8db32088f5b2163dbdb77a27
     Pseudo is Ultrasoft, Zval =  4.0
     Generated by new atomic code, or converted to UPF format
     Using radial grid of  721 points,  4 beta functions with: 
                l(1) =   0
                l(2) =   0
                l(3) =   1
                l(4) =   1
     Q(r) pseudized with  8 coefficients,  rinner =    0.800   0.800   0.800


     PseudoPot. # 4 for N  read from file:
     pseudo/N.pbe-van_bm.UPF
     MD5 check sum: 90d10febe142ad51ac9d5be1deb811c4
     Pseudo is Ultrasoft, Zval =  5.0
     Generated by new atomic code, or converted to UPF format
     Using radial grid of  729 points,  4 beta functions with: 
                l(1) =   0
                l(2) =   0
                l(3) =   1
                l(4) =   1
     Q(r) pseudized with  8 coefficients,  rinner =    0.800   0.800   0.800


     PseudoPot. # 5 for H  read from file:
     pseudo/H.pbe-van_ak.UPF
     MD5 check sum: 077eb6d537518a38cb46c6de387227b7
     Pseudo is Ultrasoft, Zval =  1.0
     Generated by new atomic code, or converted to UPF format
     Using radial grid of  615 points,  1 beta functions with: 
                l(1) =   0
     Q(r) pseudized with  8 coefficients,  rinner =    0.800

     PseudoPot. # 6 for H  read from file:
     pseudo/H.pbe-van_ak.UPF
     MD5 check sum: 077eb6d537518a38cb46c6de387227b7
     Pseudo is Ultrasoft, Zval =  1.0
     Generated by new atomic code, or converted to UPF format
     Using radial grid of  615 points,  1 beta functions with: 
                l(1) =   0
     Q(r) pseudized with  8 coefficients,  rinner =    0.800

     PseudoPot. # 7 for H  read from file:
     pseudo/H.pbe-van_ak.UPF
     MD5 check sum: 077eb6d537518a38cb46c6de387227b7
     Pseudo is Ultrasoft, Zval =  1.0
     Generated by new atomic code, or converted to UPF format
     Using radial grid of  615 points,  1 beta functions with: 
                l(1) =   0
     Q(r) pseudized with  8 coefficients,  rinner =    0.800

     atomic species   valence    mass     pseudopotential
        O              6.00    15.99900     O ( 1.00)
        C1             4.00    12.01100     C ( 1.00)
        C2             4.00    12.01100     C ( 1.00)
        N              5.00    14.00700     N ( 1.00)
        H1             1.00     1.00800     H ( 1.00)
        H2             1.00     1.00800     H ( 1.00)
        H3             1.00     1.00800     H ( 1.00)

     No symmetry found



   Cartesian axes

     site n.     atom                  positions (alat units)
         1           O   tau(   1) = (   0.4246785   0.6191567   0.5224723  )
         2           C1  tau(   2) = (   0.4670950   0.5665926   0.5589953  )
         3           O   tau(   3) = (   0.4952915   0.5820186   0.6363628  )
         4           C2  tau(   4) = (   0.4876653   0.4844657   0.5169049  )
         5           N   tau(   5) = (   0.4488543   0.4823752   0.4327217  )
         6           H1  tau(   6) = (   0.4673425   0.4297625   0.4024945  )
         7           H1  tau(   7) = (   0.4522890   0.5320326   0.3934032  )
         8           H1  tau(   8) = (   0.3893993   0.4762152   0.4541401  )
         9           H2  tau(   9) = (   0.4640755   0.4317496   0.5549601  )
        10           C2  tau(  10) = (   0.5836917   0.4755757   0.5083363  )
        11           H3  tau(  11) = (   0.6090358   0.5300465   0.4740689  )
        12           H3  tau(  12) = (   0.5984146   0.4174022   0.4735669  )
        13           H3  tau(  13) = (   0.6121673   0.4726069   0.5715732  )

     number of k points=     1
                       cart. coord. in units 2pi/alat
        k(    1) = (   0.0000000   0.0000000   0.0000000), wk =   2.0000000

     Dense  grid:  1184463 G-vectors     FFT dimensions: ( 180, 180, 180)

     Smooth grid:   299581 G-vectors     FFT dimensions: ( 108, 108, 108)

     Largest allocated arrays     est. size (Mb)     dimensions
        Kohn-Sham Wavefunctions         0.64 Mb     (   2337,   18)
        NL pseudopotentials             1.96 Mb     (   2337,   55)
        Each V/rho on FFT grid          5.93 Mb     ( 388800)
        Each G-vector array             0.56 Mb     (  74029)
        G-vector shells                 0.04 Mb     (   5430)
     Largest temporary arrays     est. size (Mb)     dimensions
        Auxiliary wavefunctions         1.28 Mb     (   2337,   72)
        Each subspace H/S matrix        0.04 Mb     (  72,  72)
        Each <psi_i|beta_j> matrix      0.01 Mb     (     55,   18)
        Arrays for rho mixing          47.46 Mb     ( 388800,   8)
 ****** END OF ADD_ESF COMPUTATION ******

     Initial potential from superposition of free atoms
     Check: negative starting charge=   -0.029512

     starting charge   35.99980, renormalised to   36.00000

     negative rho (up, down):  0.295E-01 0.000E+00
     Starting wfc are   31 atomic wfcs

     total cpu time spent up to now is       31.7 secs

     Self-consistent Calculation

     iteration #  1     ecut=    30.00 Ry     beta=0.70
     Davidson diagonalization with overlap
     ethr =  1.00E-02,  avg # of iterations =  2.0

     negative rho (up, down):  0.317E-01 0.000E+00

     total cpu time spent up to now is       41.2 secs

     total energy              =    -129.19756601 Ry
     Harris-Foulkes estimate   =    -130.40485852 Ry
     estimated scf accuracy    <       1.76779914 Ry

     iteration #  2     ecut=    30.00 Ry     beta=0.70
     Davidson diagonalization with overlap
     ethr =  4.91E-03,  avg # of iterations =  7.0

     negative rho (up, down):  0.297E-01 0.000E+00

     total cpu time spent up to now is       51.4 secs

     total energy              =    -128.50613154 Ry
     Harris-Foulkes estimate   =    -130.33733836 Ry
     estimated scf accuracy    <       4.71940346 Ry

     iteration #  3     ecut=    30.00 Ry     beta=0.70
     Davidson diagonalization with overlap
     ethr =  4.91E-03,  avg # of iterations =  5.0

     negative rho (up, down):  0.422E-01 0.000E+00

     total cpu time spent up to now is       61.4 secs

     total energy              =    -129.76915314 Ry
     Harris-Foulkes estimate   =    -130.07008281 Ry
     estimated scf accuracy    <       0.89560548 Ry

     iteration #  4     ecut=    30.00 Ry     beta=0.70
     Davidson diagonalization with overlap
     ethr =  2.49E-03,  avg # of iterations =  3.0

     negative rho (up, down):  0.463E-01 0.000E+00

     total cpu time spent up to now is       70.2 secs

     total energy              =    -129.80657943 Ry
     Harris-Foulkes estimate   =    -129.86210134 Ry
     estimated scf accuracy    <       0.20054928 Ry

     iteration #  5     ecut=    30.00 Ry     beta=0.70
     Davidson diagonalization with overlap
     ethr =  5.57E-04,  avg # of iterations =  2.0

     negative rho (up, down):  0.476E-01 0.000E+00

     total cpu time spent up to now is       79.1 secs

     total energy              =    -129.79570353 Ry
     Harris-Foulkes estimate   =    -129.82362618 Ry
     estimated scf accuracy    <       0.09632471 Ry

     iteration #  6     ecut=    30.00 Ry     beta=0.70
     Davidson diagonalization with overlap
     ethr =  2.68E-04,  avg # of iterations =  2.0

     negative rho (up, down):  0.493E-01 0.000E+00

     total cpu time spent up to now is       87.8 secs

     total energy              =    -129.78943942 Ry
     Harris-Foulkes estimate   =    -129.80068796 Ry
     estimated scf accuracy    <       0.02858230 Ry

     iteration #  7     ecut=    30.00 Ry     beta=0.70
     Davidson diagonalization with overlap
     ethr =  7.94E-05,  avg # of iterations =  4.0

     negative rho (up, down):  0.500E-01 0.000E+00

     total cpu time spent up to now is       96.9 secs

     total energy              =    -129.79406700 Ry
     Harris-Foulkes estimate   =    -129.79446761 Ry
     estimated scf accuracy    <       0.00145614 Ry

     iteration #  8     ecut=    30.00 Ry     beta=0.70
     Davidson diagonalization with overlap
     ethr =  4.04E-06,  avg # of iterations =  4.0

     negative rho (up, down):  0.509E-01 0.000E+00

     total cpu time spent up to now is      106.6 secs

     total energy              =    -129.79442271 Ry
     Harris-Foulkes estimate   =    -129.79447025 Ry
     estimated scf accuracy    <       0.00020176 Ry

     iteration #  9     ecut=    30.00 Ry     beta=0.70
     Davidson diagonalization with overlap
     ethr =  5.60E-07,  avg # of iterations =  3.0

     negative rho (up, down):  0.506E-01 0.000E+00

     total cpu time spent up to now is      116.1 secs

     total energy              =    -129.79443937 Ry
     Harris-Foulkes estimate   =    -129.79447426 Ry
     estimated scf accuracy    <       0.00008300 Ry

     iteration # 10     ecut=    30.00 Ry     beta=0.70
     Davidson diagonalization with overlap
     ethr =  2.31E-07,  avg # of iterations =  4.0

     negative rho (up, down):  0.505E-01 0.000E+00

     total cpu time spent up to now is      125.2 secs

     total energy              =    -129.79444942 Ry
     Harris-Foulkes estimate   =    -129.79445156 Ry
     estimated scf accuracy    <       0.00000416 Ry

     iteration # 11     ecut=    30.00 Ry     beta=0.70
     Davidson diagonalization with overlap
     ethr =  1.16E-08,  avg # of iterations =  4.0

     negative rho (up, down):  0.506E-01 0.000E+00

     total cpu time spent up to now is      134.8 secs

     total energy              =    -129.79445093 Ry
     Harris-Foulkes estimate   =    -129.79445170 Ry
     estimated scf accuracy    <       0.00000197 Ry

     iteration # 12     ecut=    30.00 Ry     beta=0.70
     Davidson diagonalization with overlap
     ethr =  5.48E-09,  avg # of iterations =  4.0

     negative rho (up, down):  0.506E-01 0.000E+00

     total cpu time spent up to now is      143.7 secs

     total energy              =    -129.79445129 Ry
     Harris-Foulkes estimate   =    -129.79445132 Ry
     estimated scf accuracy    <       0.00000006 Ry

     iteration # 13     ecut=    30.00 Ry     beta=0.70
     Davidson diagonalization with overlap
     ethr =  1.78E-10,  avg # of iterations =  3.0

     negative rho (up, down):  0.506E-01 0.000E+00

     total cpu time spent up to now is      151.7 secs

     End of self-consistent calculation

          k = 0.0000 0.0000 0.0000 ( 37387 PWs)   bands (ev):

   -28.0385 -26.4584 -23.0886 -21.1135 -18.5221 -17.2722 -16.5531 -14.9600
   -13.7285 -11.8973 -11.2226 -11.1272 -10.7655  -9.6779  -9.5919  -6.4574
    -5.9728  -5.1494

!    total energy              =    -129.79445131 Ry
     Harris-Foulkes estimate   =    -129.79445131 Ry
     estimated scf accuracy    <          6.7E-09 Ry

     convergence has been achieved in  13 iterations

     Forces acting on atoms (Ry/au):

     atom    1 type  1   force =    -0.16315546    0.05861064   -0.23763497
     atom    2 type  2   force =     0.03394756    0.03425675    0.20410812
     atom    3 type  1   force =    -0.08162215   -0.19077739   -0.17119170
     atom    4 type  3   force =     0.09476338    0.00581399    0.04281509
     atom    5 type  4   force =    -0.05510882   -0.00210833    0.05645032
     atom    6 type  5   force =     0.00152490   -0.02443522   -0.01664528
     atom    7 type  5   force =     0.01238548    0.06626885    0.01090470
     atom    8 type  5   force =    -0.06674557    0.01228045   -0.02920464
     atom    9 type  6   force =    -0.01570656   -0.01627684   -0.00402505
     atom   10 type  3   force =    -0.04726565   -0.02449790   -0.02070217
     atom   11 type  7   force =    -0.00549547    0.00624809   -0.01690566
     atom   12 type  7   force =     0.00685908   -0.00151132   -0.00161631
     atom   13 type  7   force =    -0.01595864   -0.00566353   -0.01001145

     Total force =     0.485319     Total SCF correction =     0.000161

     Molecular Dynamics Calculation
     mass O                =    16.00
     mass C1               =    12.01
     mass C2               =    12.01
     mass N                =    14.01
     mass H1               =     1.01
     mass H2               =     1.01
     mass H3               =     1.01
     Time step             =    20.00 a.u.,  0.9676 femto-seconds

     Entering Dynamics:    iteration =     1
                           time      =   0.0010 pico-seconds


ATOMIC_POSITIONS (angstrom)
O        6.741113832   9.829839671   8.292940340
C1       7.416001584   8.995274667   8.876452910
O        7.862710489   9.238451050  10.101469876
C2       7.743149532   7.691208792   8.206695282
N        7.125639637   7.657948506   6.870314535
H1       7.419777954   6.819907924   6.388062177
H1       7.182050458   8.453925644   6.246908547
H1       6.174540513   7.561588553   7.206505079
H2       7.365928945   6.852393244   8.809955087
C2       9.266226142   7.549784146   8.070052018
H3       9.668395230   8.415482845   7.524297982
H3       9.501204434   6.626324284   7.518090566
H3       9.716903505   7.502237964   9.073004073


     kinetic energy (Ekin) =     0.00000000 Ry
     temperature           =     0.00000000 K 
     Ekin + Etot (const)   =  -129.79445131 Ry

     Linear momentum :    0.0000000000    0.0000000000    0.0000000000

     Writing output data file alanine.save
 ****** END OF FORCE_ESF COMPUTATION ******
     Check: negative starting charge=   -0.029512
     NEW-OLD atomic charge density approx. for the potential
     Check: negative starting charge=   -0.029486

     negative rho (up, down):  0.506E-01 0.000E+00
 ****** END OF ADD_ESF COMPUTATION ******

     total cpu time spent up to now is      283.7 secs

     Self-consistent Calculation

     iteration #  1     ecut=    30.00 Ry     beta=0.70
     Davidson diagonalization with overlap
     ethr =  1.00E-06,  avg # of iterations =  3.0

     negative rho (up, down):  0.505E-01 0.000E+00

     total cpu time spent up to now is      293.6 secs

     total energy              =    -129.80356456 Ry
     Harris-Foulkes estimate   =    -129.80361213 Ry
     estimated scf accuracy    <       0.00008592 Ry

     iteration #  2     ecut=    30.00 Ry     beta=0.70
     Davidson diagonalization with overlap
     ethr =  2.39E-07,  avg # of iterations =  3.0

     negative rho (up, down):  0.505E-01 0.000E+00

     total cpu time spent up to now is      303.0 secs

     total energy              =    -129.80358182 Ry
     Harris-Foulkes estimate   =    -129.80360374 Ry
     estimated scf accuracy    <       0.00004040 Ry

     iteration #  3     ecut=    30.00 Ry     beta=0.70
     Davidson diagonalization with overlap
     ethr =  1.12E-07,  avg # of iterations =  3.0

     negative rho (up, down):  0.505E-01 0.000E+00

     total cpu time spent up to now is      312.2 secs

     total energy              =    -129.80359173 Ry
     Harris-Foulkes estimate   =    -129.80359234 Ry
     estimated scf accuracy    <       0.00000174 Ry

     iteration #  4     ecut=    30.00 Ry     beta=0.70
     Davidson diagonalization with overlap
     ethr =  4.83E-09,  avg # of iterations =  4.0

     negative rho (up, down):  0.505E-01 0.000E+00

     total cpu time spent up to now is      321.5 secs

     total energy              =    -129.80359207 Ry
     Harris-Foulkes estimate   =    -129.80359225 Ry
     estimated scf accuracy    <       0.00000039 Ry

     iteration #  5     ecut=    30.00 Ry     beta=0.70
     Davidson diagonalization with overlap
     ethr =  1.07E-09,  avg # of iterations =  4.0

     negative rho (up, down):  0.505E-01 0.000E+00

     total cpu time spent up to now is      330.8 secs

     total energy              =    -129.80359215 Ry
     Harris-Foulkes estimate   =    -129.80359221 Ry
     estimated scf accuracy    <       0.00000013 Ry

     iteration #  6     ecut=    30.00 Ry     beta=0.70
     Davidson diagonalization with overlap
     ethr =  3.61E-10,  avg # of iterations =  4.0

     negative rho (up, down):  0.505E-01 0.000E+00

     total cpu time spent up to now is      340.0 secs

     total energy              =    -129.80359218 Ry
     Harris-Foulkes estimate   =    -129.80359219 Ry
     estimated scf accuracy    <       0.00000005 Ry

     iteration #  7     ecut=    30.00 Ry     beta=0.70
     Davidson diagonalization with overlap
     ethr =  1.27E-10,  avg # of iterations =  4.0

     negative rho (up, down):  0.505E-01 0.000E+00

     total cpu time spent up to now is      347.7 secs

     End of self-consistent calculation

          k = 0.0000 0.0000 0.0000 ( 37387 PWs)   bands (ev):

   -27.9732 -26.4289 -23.1336 -21.0999 -18.4783 -17.2178 -16.5186 -14.9370
   -13.7103 -11.8964 -11.2239 -11.1224 -10.7571  -9.6758  -9.5972  -6.4572
    -5.9979  -5.1749

!    total energy              =    -129.80359218 Ry
     Harris-Foulkes estimate   =    -129.80359219 Ry
     estimated scf accuracy    <          3.2E-09 Ry

     convergence has been achieved in   7 iterations

     Forces acting on atoms (Ry/au):

     atom    1 type  1   force =    -0.15941619    0.05487685   -0.23360284
     atom    2 type  2   force =     0.02982020    0.03620168    0.19637849
     atom    3 type  1   force =    -0.08076997   -0.18911903   -0.16744764
     atom    4 type  3   force =     0.09071755    0.00499639    0.04195702
     atom    5 type  4   force =    -0.05737078   -0.00183418    0.05048084
     atom    6 type  5   force =    -0.00101226   -0.01602301   -0.01219099
     atom    7 type  5   force =     0.01204987    0.05866810    0.01598122
     atom    8 type  5   force =    -0.05910777    0.01295482   -0.03019530
     atom    9 type  6   force =    -0.01477209   -0.01550503   -0.00391150
     atom   10 type  3   force =    -0.04643486   -0.02423131   -0.02229910
     atom   11 type  7   force =    -0.00591948    0.00578098   -0.01679567
     atom   12 type  7   force =     0.00665808   -0.00082627   -0.00116926
     atom   13 type  7   force =    -0.01537917   -0.00592263   -0.00863802

     Total force =     0.472468     Total SCF correction =     0.000108

     Entering Dynamics:    iteration =     2
                           time      =   0.0019 pico-seconds


ATOMIC_POSITIONS (angstrom)
O        6.739310016   9.831124786   8.290076633
C1       7.418461353   8.996759885   8.884385479
O        7.862571358   9.235649144  10.099364233
C2       7.747117399   7.691441726   8.208941606
N        7.125244522   7.656965849   6.871933835
H1       7.421102550   6.809358836   6.381068640
H1       7.186060216   8.471807905   6.250223447
H1       6.156519073   7.564395523   7.195546963
H2       7.361405894   6.849392525   8.808093899
C2       9.266275831   7.549260463   8.070757638
H3       9.670306512   8.416864141   7.524329056
H3       9.504763683   6.625387405   7.518587892
H3       9.715659507   7.503392126   9.070713793


     kinetic energy (Ekin) =     0.00486691 Ry
     temperature           =    42.69015187 K 
     Ekin + Etot (const)   =  -129.79872528 Ry
     Message from routine dynamics:
     Total linear momentum <> 0

     Linear momentum :    0.0403210681   -0.0213525257    0.0796670613

     Writing output data file alanine.save
 ****** END OF FORCE_ESF COMPUTATION ******
     Check: negative starting charge=   -0.029486
     NEW-OLD atomic charge density approx. for the potential
     Check: negative starting charge=   -0.029410

     negative rho (up, down):  0.506E-01 0.000E+00
 ****** END OF ADD_ESF COMPUTATION ******

     total cpu time spent up to now is      479.7 secs

     Self-consistent Calculation

     iteration #  1     ecut=    30.00 Ry     beta=0.70
     Davidson diagonalization with overlap
     ethr =  1.00E-06,  avg # of iterations =  4.0

     negative rho (up, down):  0.504E-01 0.000E+00

     total cpu time spent up to now is      490.7 secs

     total energy              =    -129.82724137 Ry
     Harris-Foulkes estimate   =    -129.82755601 Ry
     estimated scf accuracy    <       0.00058618 Ry

     iteration #  2     ecut=    30.00 Ry     beta=0.70
     Davidson diagonalization with overlap
     ethr =  1.63E-06,  avg # of iterations =  3.0

     negative rho (up, down):  0.504E-01 0.000E+00

     total cpu time spent up to now is      500.1 secs

     total energy              =    -129.82734528 Ry
     Harris-Foulkes estimate   =    -129.82749708 Ry
     estimated scf accuracy    <       0.00028236 Ry

     iteration #  3     ecut=    30.00 Ry     beta=0.70
     Davidson diagonalization with overlap
     ethr =  7.84E-07,  avg # of iterations =  3.0

     negative rho (up, down):  0.504E-01 0.000E+00

     total cpu time spent up to now is      509.3 secs

     total energy              =    -129.82741471 Ry
     Harris-Foulkes estimate   =    -129.82741927 Ry
     estimated scf accuracy    <       0.00001321 Ry

     iteration #  4     ecut=    30.00 Ry     beta=0.70
     Davidson diagonalization with overlap
     ethr =  3.67E-08,  avg # of iterations =  3.0

     negative rho (up, down):  0.504E-01 0.000E+00

     total cpu time spent up to now is      518.7 secs

     total energy              =    -129.82741735 Ry
     Harris-Foulkes estimate   =    -129.82741856 Ry
     estimated scf accuracy    <       0.00000246 Ry

     iteration #  5     ecut=    30.00 Ry     beta=0.70
     Davidson diagonalization with overlap
     ethr =  6.84E-09,  avg # of iterations =  4.0

     negative rho (up, down):  0.504E-01 0.000E+00

     total cpu time spent up to now is      528.0 secs

     total energy              =    -129.82741789 Ry
     Harris-Foulkes estimate   =    -129.82741836 Ry
     estimated scf accuracy    <       0.00000125 Ry

     iteration #  6     ecut=    30.00 Ry     beta=0.70
     Davidson diagonalization with overlap
     ethr =  3.47E-09,  avg # of iterations =  4.0

     negative rho (up, down):  0.504E-01 0.000E+00

     total cpu time spent up to now is      537.0 secs

     total energy              =    -129.82741811 Ry
     Harris-Foulkes estimate   =    -129.82741818 Ry
     estimated scf accuracy    <       0.00000015 Ry

     iteration #  7     ecut=    30.00 Ry     beta=0.70
     Davidson diagonalization with overlap
     ethr =  4.27E-10,  avg # of iterations =  4.0

     negative rho (up, down):  0.504E-01 0.000E+00

     total cpu time spent up to now is      546.3 secs

     total energy              =    -129.82741814 Ry
     Harris-Foulkes estimate   =    -129.82741816 Ry
     estimated scf accuracy    <       0.00000003 Ry

     iteration #  8     ecut=    30.00 Ry     beta=0.70
     Davidson diagonalization with overlap
     ethr =  8.71E-11,  avg # of iterations =  3.0

     negative rho (up, down):  0.504E-01 0.000E+00

     total cpu time spent up to now is      554.0 secs

     End of self-consistent calculation

          k = 0.0000 0.0000 0.0000 ( 37387 PWs)   bands (ev):

   -27.8005 -26.3490 -23.2644 -21.0648 -18.3630 -17.0744 -16.4231 -14.8718
   -13.6592 -11.8949 -11.2300 -11.1077 -10.7336  -9.6792  -9.6089  -6.4548
    -6.0702  -5.2501

!    total energy              =    -129.82741815 Ry
     Harris-Foulkes estimate   =    -129.82741815 Ry
     estimated scf accuracy    <          4.3E-09 Ry

     convergence has been achieved in   8 iterations

     Forces acting on atoms (Ry/au):

     atom    1 type  1   force =    -0.14886687    0.04451280   -0.22190013
     atom    2 type  2   force =     0.01788054    0.04115763    0.17320556
     atom    3 type  1   force =    -0.07794430   -0.18398458   -0.15565791
     atom    4 type  3   force =     0.07903669    0.00277040    0.03957207
     atom    5 type  4   force =    -0.06280735   -0.00002270    0.03658900
     atom    6 type  5   force =    -0.00688540    0.00429196   -0.00137929
     atom    7 type  5   force =     0.01124794    0.04002819    0.02782080
     atom    8 type  5   force =    -0.03976946    0.01448188   -0.03169758
     atom    9 type  6   force =    -0.01211331   -0.01340427   -0.00349047
     atom   10 type  3   force =    -0.04392683   -0.02342092   -0.02652382
     atom   11 type  7   force =    -0.00710516    0.00455403   -0.01654238
     atom   12 type  7   force =     0.00610370    0.00098797    0.00003128
     atom   13 type  7   force =    -0.01383205   -0.00664519   -0.00491870

     Total force =     0.438389     Total SCF correction =     0.000143

     Entering Dynamics:    iteration =     3
                           time      =   0.0029 pico-seconds


ATOMIC_POSITIONS (angstrom)
O        6.736969862   9.832750590   8.286869152
C1       7.422668072   8.999339678   8.898390165
O        7.862820680   9.231779080  10.096849808
C2       7.753627910   7.691454228   8.212978531
N        7.124395675   7.654188016   6.874105589
H1       7.421899809   6.793569158   6.369945596
H1       7.191378962   8.493328793   6.257137385
H1       6.133610032   7.567774519   7.175738246
H2       7.354218700   6.846582151   8.804162037
C2       9.266662120   7.548164456   8.072447435
H3       9.675520380   8.417857050   7.528821150
H3       9.510639538   6.623442391   7.520016421
H3       9.716525211   7.507357776   9.068097661


     kinetic energy (Ekin) =     0.01685902 Ry
     temperature           =   147.87922687 K 
     Ekin + Etot (const)   =  -129.81055913 Ry
     Message from routine dynamics:
     Total linear momentum <> 0

     Linear momentum :    0.1089439015   -0.0681132651    0.2167709555

     Writing output data file alanine.save
 ****** END OF FORCE_ESF COMPUTATION ******
     Check: negative starting charge=   -0.029410
     NEW-OLD atomic charge density approx. for the potential
     Check: negative starting charge=   -0.029303

     negative rho (up, down):  0.507E-01 0.000E+00
 ****** END OF ADD_ESF COMPUTATION ******

     total cpu time spent up to now is      686.2 secs

     Self-consistent Calculation

     iteration #  1     ecut=    30.00 Ry     beta=0.70
     Davidson diagonalization with overlap
     ethr =  1.00E-06,  avg # of iterations =  6.0

     negative rho (up, down):  0.502E-01 0.000E+00

     total cpu time spent up to now is      697.4 secs

     total energy              =    -129.85898169 Ry
     Harris-Foulkes estimate   =    -129.85946088 Ry
     estimated scf accuracy    <       0.00097241 Ry

     iteration #  2     ecut=    30.00 Ry     beta=0.70
     Davidson diagonalization with overlap
     ethr =  2.70E-06,  avg # of iterations =  3.0

     negative rho (up, down):  0.503E-01 0.000E+00

     total cpu time spent up to now is      706.7 secs

     total energy              =    -129.85913369 Ry
     Harris-Foulkes estimate   =    -129.85935014 Ry
     estimated scf accuracy    <       0.00039883 Ry

     iteration #  3     ecut=    30.00 Ry     beta=0.70
     Davidson diagonalization with overlap
     ethr =  1.11E-06,  avg # of iterations =  3.0

     negative rho (up, down):  0.503E-01 0.000E+00

     total cpu time spent up to now is      715.8 secs

     total energy              =    -129.85923846 Ry
     Harris-Foulkes estimate   =    -129.85924775 Ry
     estimated scf accuracy    <       0.00002719 Ry

     iteration #  4     ecut=    30.00 Ry     beta=0.70
     Davidson diagonalization with overlap
     ethr =  7.55E-08,  avg # of iterations =  3.0

     negative rho (up, down):  0.503E-01 0.000E+00

     total cpu time spent up to now is      725.1 secs

     total energy              =    -129.85924469 Ry
     Harris-Foulkes estimate   =    -129.85924534 Ry
     estimated scf accuracy    <       0.00000157 Ry

     iteration #  5     ecut=    30.00 Ry     beta=0.70
     Davidson diagonalization with overlap
     ethr =  4.36E-09,  avg # of iterations =  4.0

     negative rho (up, down):  0.503E-01 0.000E+00

     total cpu time spent up to now is      734.8 secs

     total energy              =    -129.85924487 Ry
     Harris-Foulkes estimate   =    -129.85924570 Ry
     estimated scf accuracy    <       0.00000208 Ry

     iteration #  6     ecut=    30.00 Ry     beta=0.70
     Davidson diagonalization with overlap
     ethr =  4.36E-09,  avg # of iterations =  4.0

     negative rho (up, down):  0.503E-01 0.000E+00

     total cpu time spent up to now is      743.8 secs

     total energy              =    -129.85924532 Ry
     Harris-Foulkes estimate   =    -129.85924537 Ry
     estimated scf accuracy    <       0.00000019 Ry

     iteration #  7     ecut=    30.00 Ry     beta=0.70
     Davidson diagonalization with overlap
     ethr =  5.36E-10,  avg # of iterations =  3.0

     negative rho (up, down):  0.503E-01 0.000E+00

     total cpu time spent up to now is      751.4 secs

     End of self-consistent calculation

          k = 0.0000 0.0000 0.0000 ( 37387 PWs)   bands (ev):

   -27.5749 -26.2450 -23.4654 -21.0230 -18.2130 -16.8907 -16.2901 -14.7765
   -13.5852 -11.8968 -11.2450 -11.0833 -10.7008  -9.7128  -9.6154  -6.4448
    -6.1795  -5.3692

!    total energy              =    -129.85924534 Ry
     Harris-Foulkes estimate   =    -129.85924535 Ry
     estimated scf accuracy    <          7.9E-09 Ry

     convergence has been achieved in   7 iterations

     Forces acting on atoms (Ry/au):

     atom    1 type  1   force =    -0.13327896    0.02958070   -0.20377744
     atom    2 type  2   force =    -0.00075531    0.04675883    0.13453034
     atom    3 type  1   force =    -0.07240218   -0.17512728   -0.13436918
     atom    4 type  3   force =     0.06095452   -0.00027085    0.03613634
     atom    5 type  4   force =    -0.06825121    0.00496674    0.02259621
     atom    6 type  5   force =    -0.01265627    0.02659789    0.01063164
     atom    7 type  5   force =     0.01042040    0.01895233    0.03963238
     atom    8 type  5   force =    -0.01669645    0.01580173   -0.03079854
     atom    9 type  6   force =    -0.00811711   -0.01054451   -0.00254087
     atom   10 type  3   force =    -0.03968173   -0.02208831   -0.03187264
     atom   11 type  7   force =    -0.00882030    0.00301332   -0.01635959
     atom   12 type  7   force =     0.00532789    0.00329643    0.00160405
     atom   13 type  7   force =    -0.01183270   -0.00770868    0.00002953

     Total force =     0.391132     Total SCF correction =     0.000176

     Entering Dynamics:    iteration =     4
                           time      =   0.0039 pico-seconds


ATOMIC_POSITIONS (angstrom)
O        6.733974331   9.834436776   8.282693292
C1       7.427951597   9.002901947   8.916829884
O        7.863224255   9.226295022  10.093696874
C2       7.762149258   7.691127942   8.218458638
N        7.122965882   7.650152514   6.876630918
H1       7.420463780   6.780115983   6.358993602
H1       7.198245355   8.514677610   6.271650172
H1       6.110533281   7.572842229   7.147660478
H2       7.345472591   6.843381673   8.798823459
C2       9.267258582   7.546415789   8.074574597
H3       9.682177720   8.418333406   7.535124980
H3       9.518478743   6.621327477   7.522494621
H3       9.718406913   7.512230369   9.066176297


     kinetic energy (Ekin) =     0.03130376 Ry
     temperature           =   274.58146387 K 
     Ekin + Etot (const)   =  -129.82794158 Ry
     Message from routine dynamics:
     Total linear momentum <> 0

     Linear momentum :    0.1455184973   -0.1238999864    0.2982450883

     Writing output data file alanine.save
 ****** END OF FORCE_ESF COMPUTATION ******
     Check: negative starting charge=   -0.029303
     NEW-OLD atomic charge density approx. for the potential
     Check: negative starting charge=   -0.029215

     negative rho (up, down):  0.507E-01 0.000E+00
 ****** END OF ADD_ESF COMPUTATION ******

     total cpu time spent up to now is      883.4 secs

     Self-consistent Calculation

     iteration #  1     ecut=    30.00 Ry     beta=0.70
     Davidson diagonalization with overlap
     ethr =  1.00E-06,  avg # of iterations =  7.0

     negative rho (up, down):  0.502E-01 0.000E+00

     total cpu time spent up to now is      894.9 secs

     total energy              =    -129.89433381 Ry
     Harris-Foulkes estimate   =    -129.89474446 Ry
     estimated scf accuracy    <       0.00099249 Ry

     iteration #  2     ecut=    30.00 Ry     beta=0.70
     Davidson diagonalization with overlap
     ethr =  2.76E-06,  avg # of iterations =  3.0

     negative rho (up, down):  0.502E-01 0.000E+00

     total cpu time spent up to now is      904.2 secs

     total energy              =    -129.89445627 Ry
     Harris-Foulkes estimate   =    -129.89460261 Ry
     estimated scf accuracy    <       0.00026734 Ry

     iteration #  3     ecut=    30.00 Ry     beta=0.70
     Davidson diagonalization with overlap
     ethr =  7.43E-07,  avg # of iterations =  3.0

     negative rho (up, down):  0.503E-01 0.000E+00

     total cpu time spent up to now is      913.8 secs

     total energy              =    -129.89453077 Ry
     Harris-Foulkes estimate   =    -129.89455285 Ry
     estimated scf accuracy    <       0.00005255 Ry

     iteration #  4     ecut=    30.00 Ry     beta=0.70
     Davidson diagonalization with overlap
     ethr =  1.46E-07,  avg # of iterations =  3.0

     negative rho (up, down):  0.503E-01 0.000E+00

     total cpu time spent up to now is      923.0 secs

     total energy              =    -129.89454159 Ry
     Harris-Foulkes estimate   =    -129.89454333 Ry
     estimated scf accuracy    <       0.00000397 Ry

     iteration #  5     ecut=    30.00 Ry     beta=0.70
     Davidson diagonalization with overlap
     ethr =  1.10E-08,  avg # of iterations =  4.0

     negative rho (up, down):  0.503E-01 0.000E+00

     total cpu time spent up to now is      932.5 secs

     total energy              =    -129.89454275 Ry
     Harris-Foulkes estimate   =    -129.89454319 Ry
     estimated scf accuracy    <       0.00000104 Ry

     iteration #  6     ecut=    30.00 Ry     beta=0.70
     Davidson diagonalization with overlap
     ethr =  2.89E-09,  avg # of iterations =  4.0

     negative rho (up, down):  0.503E-01 0.000E+00

     total cpu time spent up to now is      942.0 secs

     total energy              =    -129.89454297 Ry
     Harris-Foulkes estimate   =    -129.89454303 Ry
     estimated scf accuracy    <       0.00000016 Ry

     iteration #  7     ecut=    30.00 Ry     beta=0.70
     Davidson diagonalization with overlap
     ethr =  4.33E-10,  avg # of iterations =  4.0

     negative rho (up, down):  0.503E-01 0.000E+00

     total cpu time spent up to now is      951.2 secs

     total energy              =    -129.89454299 Ry
     Harris-Foulkes estimate   =    -129.89454301 Ry
     estimated scf accuracy    <       0.00000003 Ry

     iteration #  8     ecut=    30.00 Ry     beta=0.70
     Davidson diagonalization with overlap
     ethr =  7.65E-11,  avg # of iterations =  4.0

     negative rho (up, down):  0.503E-01 0.000E+00

     total cpu time spent up to now is      958.9 secs

     End of self-consistent calculation

          k = 0.0000 0.0000 0.0000 ( 37387 PWs)   bands (ev):

   -27.3528 -26.1630 -23.7012 -20.9894 -18.0623 -16.7179 -16.1513 -14.6670
   -13.5003 -11.9077 -11.2714 -11.0527 -10.6680  -9.7829  -9.6287  -6.4227
    -6.3096  -5.5233

!    total energy              =    -129.89454300 Ry
     Harris-Foulkes estimate   =    -129.89454300 Ry
     estimated scf accuracy    <          3.3E-09 Ry

     convergence has been achieved in   8 iterations

     Forces acting on atoms (Ry/au):

     atom    1 type  1   force =    -0.11504954    0.01288378   -0.18123942
     atom    2 type  2   force =    -0.02480755    0.05012056    0.08019866
     atom    3 type  1   force =    -0.06312849   -0.16235463   -0.10146414
     atom    4 type  3   force =     0.03821943   -0.00361893    0.03206435
     atom    5 type  4   force =    -0.07047327    0.01362704    0.01409194
     atom    6 type  5   force =    -0.01582072    0.04332337    0.01982589
     atom    7 type  5   force =     0.00998978    0.00237584    0.04638640
     atom    8 type  5   force =     0.00270200    0.01603023   -0.02558637
     atom    9 type  6   force =    -0.00330443   -0.00769389   -0.00078974
     atom   10 type  3   force =    -0.03358750   -0.02036089   -0.03631671
     atom   11 type  7   force =    -0.01073073    0.00168845   -0.01653134
     atom   12 type  7   force =     0.00451035    0.00530068    0.00306519
     atom   13 type  7   force =    -0.01010635   -0.00898413    0.00461179

     Total force =     0.337021     Total SCF correction =     0.000132

     Entering Dynamics:    iteration =     5
                           time      =   0.0048 pico-seconds


ATOMIC_POSITIONS (angstrom)
O        6.730266707   9.835839552   8.277336235
C1       7.433481058   9.007450362   8.938054379
O        7.863591433   9.219300694  10.089867037
C2       7.771876481   7.690310736   8.224762262
N        7.120562958   7.644930595   6.878791104
H1       7.415599676   6.773096461   6.349881595
H1       7.206054430   8.531477440   6.294920765
H1       6.091930555   7.579595016   7.111817823
H2       7.335997900   6.840359514   8.791916644
C2       9.267852573   7.543963177   8.076508539
H3       9.689503957   8.417795913   7.542640471
H3       9.527699711   6.619462235   7.525824648
H3       9.721385006   7.517548537   9.065549091


     kinetic energy (Ekin) =     0.04464409 Ry
     temperature           =   391.59646599 K 
     Ekin + Etot (const)   =  -129.84989891 Ry
     Message from routine dynamics:
     Total linear momentum <> 0

     Linear momentum :    0.1401284176   -0.1875781478    0.3137973556

     Writing output data file alanine.save
 ****** END OF FORCE_ESF COMPUTATION ******
     Check: negative starting charge=   -0.029215
     NEW-OLD atomic charge density approx. for the potential
     Check: negative starting charge=   -0.029193

     negative rho (up, down):  0.509E-01 0.000E+00
 ****** END OF ADD_ESF COMPUTATION ******

     total cpu time spent up to now is     1091.0 secs

     Self-consistent Calculation

     iteration #  1     ecut=    30.00 Ry     beta=0.70
     Davidson diagonalization with overlap
     ethr =  1.00E-06,  avg # of iterations =  7.0

     negative rho (up, down):  0.502E-01 0.000E+00

     total cpu time spent up to now is     1102.5 secs

     total energy              =    -129.92927687 Ry
     Harris-Foulkes estimate   =    -129.92959348 Ry
     estimated scf accuracy    <       0.00093711 Ry

     iteration #  2     ecut=    30.00 Ry     beta=0.70
     Davidson diagonalization with overlap
     ethr =  2.60E-06,  avg # of iterations =  4.0

     negative rho (up, down):  0.503E-01 0.000E+00

     total cpu time spent up to now is     1111.6 secs

     total energy              =    -129.92938687 Ry
     Harris-Foulkes estimate   =    -129.92941638 Ry
     estimated scf accuracy    <       0.00008401 Ry

     iteration #  3     ecut=    30.00 Ry     beta=0.70
     Davidson diagonalization with overlap
     ethr =  2.33E-07,  avg # of iterations =  4.0

     negative rho (up, down):  0.504E-01 0.000E+00

     total cpu time spent up to now is     1121.4 secs

     total energy              =    -129.92939142 Ry
     Harris-Foulkes estimate   =    -129.92943463 Ry
     estimated scf accuracy    <       0.00009460 Ry

     iteration #  4     ecut=    30.00 Ry     beta=0.70
     Davidson diagonalization with overlap
     ethr =  2.33E-07,  avg # of iterations =  4.0

     negative rho (up, down):  0.504E-01 0.000E+00

     total cpu time spent up to now is     1130.7 secs

     total energy              =    -129.92941267 Ry
     Harris-Foulkes estimate   =    -129.92942110 Ry
     estimated scf accuracy    <       0.00002336 Ry

     iteration #  5     ecut=    30.00 Ry     beta=0.70
     Davidson diagonalization with overlap
     ethr =  6.49E-08,  avg # of iterations =  4.0

     negative rho (up, down):  0.504E-01 0.000E+00

     total cpu time spent up to now is     1140.0 secs

     total energy              =    -129.92941693 Ry
     Harris-Foulkes estimate   =    -129.92941770 Ry
     estimated scf accuracy    <       0.00000172 Ry

     iteration #  6     ecut=    30.00 Ry     beta=0.70
     Davidson diagonalization with overlap
     ethr =  4.79E-09,  avg # of iterations =  3.0

     negative rho (up, down):  0.504E-01 0.000E+00

     total cpu time spent up to now is     1149.4 secs

     total energy              =    -129.92941734 Ry
     Harris-Foulkes estimate   =    -129.92941747 Ry
     estimated scf accuracy    <       0.00000027 Ry

     iteration #  7     ecut=    30.00 Ry     beta=0.70
     Davidson diagonalization with overlap
     ethr =  7.37E-10,  avg # of iterations =  3.0

     negative rho (up, down):  0.504E-01 0.000E+00

     total cpu time spent up to now is     1158.7 secs

     total energy              =    -129.92941741 Ry
     Harris-Foulkes estimate   =    -129.92941742 Ry
     estimated scf accuracy    <       0.00000002 Ry

     iteration #  8     ecut=    30.00 Ry     beta=0.70
     Davidson diagonalization with overlap
     ethr =  6.03E-11,  avg # of iterations =  3.0

     negative rho (up, down):  0.504E-01 0.000E+00

     total cpu time spent up to now is     1166.6 secs

     End of self-consistent calculation

          k = 0.0000 0.0000 0.0000 ( 37387 PWs)   bands (ev):

   -27.1765 -26.1630 -23.9105 -20.9726 -17.9299 -16.5939 -16.0358 -14.5584
   -13.4133 -11.9311 -11.3087 -11.0200 -10.6448  -9.8795  -9.6715  -6.4384
    -6.3853  -5.6968

!    total energy              =    -129.92941742 Ry
     Harris-Foulkes estimate   =    -129.92941742 Ry
     estimated scf accuracy    <          1.5E-09 Ry

     convergence has been achieved in   8 iterations

     Forces acting on atoms (Ry/au):

     atom    1 type  1   force =    -0.09663329   -0.00276844   -0.15663215
     atom    2 type  2   force =    -0.05314326    0.04879559    0.01034874
     atom    3 type  1   force =    -0.04917270   -0.14589322   -0.05512150
     atom    4 type  3   force =     0.01284915   -0.00694375    0.02760207
     atom    5 type  4   force =    -0.06743899    0.02525934    0.01335227
     atom    6 type  5   force =    -0.01538496    0.05108748    0.02426758
     atom    7 type  5   force =     0.01026653   -0.00631110    0.04622670
     atom    8 type  5   force =     0.01382441    0.01481486   -0.01591317
     atom    9 type  6   force =     0.00176088   -0.00559574    0.00197698
     atom   10 type  3   force =    -0.02570493   -0.01836436   -0.03798577
     atom   11 type  7   force =    -0.01249318    0.00102227   -0.01730010
     atom   12 type  7   force =     0.00381863    0.00629368    0.00397130
     atom   13 type  7   force =    -0.00935112   -0.01037698    0.00729088

     Total force =     0.286195     Total SCF correction =     0.000106

     Entering Dynamics:    iteration =     6
                           time      =   0.0058 pico-seconds


ATOMIC_POSITIONS (angstrom)
O        6.725806090   9.836671905   8.270684121
C1       7.438346818   9.012935692   8.960167523
O        7.863813167   9.210994663  10.085608180
C2       7.781959413   7.688897323   8.231339164
N        7.116898997   7.638697096   6.880077198
H1       7.407027648   6.774430639   6.343140316
H1       7.214400887   8.541426975   6.326447521
H1       6.080381635   7.587740041   7.069858256
H2       7.326697306   6.837956519   8.783622418
C2       9.268277584   7.540804234   8.077753976
H3       9.696766332   8.415953212   7.550690110
H3       9.537754268   6.618073503   7.529764917
H3       9.725308291   7.522860549   9.066432228


     kinetic energy (Ekin) =     0.05525455 Ry
     temperature           =   484.66624806 K 
     Ekin + Etot (const)   =  -129.87416287 Ry
     Message from routine dynamics:
     Total linear momentum <> 0

     Linear momentum :    0.0942730332   -0.2535617652    0.2731533068

     Writing output data file alanine.save
 ****** END OF FORCE_ESF COMPUTATION ******
     Check: negative starting charge=   -0.029193
     NEW-OLD atomic charge density approx. for the potential
     Check: negative starting charge=   -0.029225

     negative rho (up, down):  0.512E-01 0.000E+00
 ****** END OF ADD_ESF COMPUTATION ******

     total cpu time spent up to now is     1298.5 secs

     Self-consistent Calculation

     iteration #  1     ecut=    30.00 Ry     beta=0.70
     Davidson diagonalization with overlap
     ethr =  1.00E-06,  avg # of iterations =  7.0

     negative rho (up, down):  0.503E-01 0.000E+00

     total cpu time spent up to now is     1310.1 secs

     total energy              =    -129.95522263 Ry
     Harris-Foulkes estimate   =    -129.95558932 Ry
     estimated scf accuracy    <       0.00107624 Ry

     iteration #  2     ecut=    30.00 Ry     beta=0.70
     Davidson diagonalization with overlap
     ethr =  2.99E-06,  avg # of iterations =  3.0

     negative rho (up, down):  0.504E-01 0.000E+00

     total cpu time spent up to now is     1319.2 secs

     total energy              =    -129.95535881 Ry
     Harris-Foulkes estimate   =    -129.95538842 Ry
     estimated scf accuracy    <       0.00009220 Ry

     iteration #  3     ecut=    30.00 Ry     beta=0.70
     Davidson diagonalization with overlap
     ethr =  2.56E-07,  avg # of iterations =  4.0

     negative rho (up, down):  0.506E-01 0.000E+00

     total cpu time spent up to now is     1329.2 secs

     total energy              =    -129.95537307 Ry
     Harris-Foulkes estimate   =    -129.95540042 Ry
     estimated scf accuracy    <       0.00005559 Ry

     iteration #  4     ecut=    30.00 Ry     beta=0.70
     Davidson diagonalization with overlap
     ethr =  1.54E-07,  avg # of iterations =  4.0

     negative rho (up, down):  0.506E-01 0.000E+00

     total cpu time spent up to now is     1338.7 secs

     total energy              =    -129.95538508 Ry
     Harris-Foulkes estimate   =    -129.95539384 Ry
     estimated scf accuracy    <       0.00002299 Ry

     iteration #  5     ecut=    30.00 Ry     beta=0.70
     Davidson diagonalization with overlap
     ethr =  6.38E-08,  avg # of iterations =  4.0

     negative rho (up, down):  0.506E-01 0.000E+00

     total cpu time spent up to now is     1347.8 secs

     total energy              =    -129.95538967 Ry
     Harris-Foulkes estimate   =    -129.95539036 Ry
     estimated scf accuracy    <       0.00000188 Ry

     iteration #  6     ecut=    30.00 Ry     beta=0.70
     Davidson diagonalization with overlap
     ethr =  5.23E-09,  avg # of iterations =  3.0

     negative rho (up, down):  0.506E-01 0.000E+00

     total cpu time spent up to now is     1357.0 secs

     total energy              =    -129.95539001 Ry
     Harris-Foulkes estimate   =    -129.95539005 Ry
     estimated scf accuracy    <       0.00000008 Ry

     iteration #  7     ecut=    30.00 Ry     beta=0.70
     Davidson diagonalization with overlap
     ethr =  2.24E-10,  avg # of iterations =  4.0

     negative rho (up, down):  0.506E-01 0.000E+00

     total cpu time spent up to now is     1366.9 secs

     total energy              =    -129.95539004 Ry
     Harris-Foulkes estimate   =    -129.95539006 Ry
     estimated scf accuracy    <       0.00000004 Ry

     iteration #  8     ecut=    30.00 Ry     beta=0.70
     Davidson diagonalization with overlap
     ethr =  9.75E-11,  avg # of iterations =  3.0

     negative rho (up, down):  0.506E-01 0.000E+00

     total cpu time spent up to now is     1374.4 secs

     End of self-consistent calculation

          k = 0.0000 0.0000 0.0000 ( 37387 PWs)   bands (ev):

   -27.0719 -26.2881 -24.0300 -20.9725 -17.8200 -16.5346 -15.9582 -14.4598
   -13.3272 -11.9667 -11.3540 -10.9886 -10.6368  -9.9921  -9.7549  -6.5456
    -6.3351  -5.8716

!    total energy              =    -129.95539005 Ry
     Harris-Foulkes estimate   =    -129.95539005 Ry
     estimated scf accuracy    <          2.1E-09 Ry

     convergence has been achieved in   8 iterations

     Forces acting on atoms (Ry/au):

     atom    1 type  1   force =    -0.07959915   -0.01552416   -0.13176082
     atom    2 type  2   force =    -0.08465374    0.04187307   -0.07320786
     atom    3 type  1   force =    -0.02999697   -0.12628339    0.00510769
     atom    4 type  3   force =    -0.01308437   -0.01012907    0.02287609
     atom    5 type  4   force =    -0.05853417    0.03863996    0.02080156
     atom    6 type  5   force =    -0.01119240    0.04903580    0.02323785
     atom    7 type  5   force =     0.01147546   -0.00616321    0.03942275
     atom    8 type  5   force =     0.01465895    0.01230696   -0.00291361
     atom    9 type  6   force =     0.00652968   -0.00475864    0.00582017
     atom   10 type  3   force =    -0.01631419   -0.01614447   -0.03586013
     atom   11 type  7   force =    -0.01381916    0.00124377   -0.01872677
     atom   12 type  7   force =     0.00336308    0.00587786    0.00406443
     atom   13 type  7   force =    -0.00992310   -0.01181296    0.00722100

     Total force =     0.263088     Total SCF correction =     0.000100

     Entering Dynamics:    iteration =     7
                           time      =   0.0068 pico-seconds


ATOMIC_POSITIONS (angstrom)
O        6.720613033   9.836742635   8.262793888
C1       7.441651558   9.019249193   8.981157027
O        7.863939932   9.201680043  10.081558347
C2       7.791612420   7.686849344   8.237805322
N        7.111871529   7.631726572   6.880288244
H1       7.395483195   6.783711970   6.338089951
H1       7.223230225   8.544551604   6.364229113
H1       6.075964878   7.596760367   7.024395598
H2       7.318467533   6.836389093   8.774591583
C2       9.268474796   7.537002492   8.078068290
H3       9.703399552   8.412811900   7.558614670
H3       9.548224026   6.617111285   7.534067688
H3       9.729768472   7.527779021   9.068532771


     kinetic energy (Ekin) =     0.06183191 Ry
     temperature           =   542.35973975 K 
     Ekin + Etot (const)   =  -129.89355813 Ry
     Message from routine dynamics:
     Total linear momentum <> 0

     Linear momentum :    0.0183433325   -0.3145058205    0.1980426037

     Writing output data file alanine.save
 ****** END OF FORCE_ESF COMPUTATION ******
     Check: negative starting charge=   -0.029225
     NEW-OLD atomic charge density approx. for the potential
     Check: negative starting charge=   -0.029239

     negative rho (up, down):  0.517E-01 0.000E+00
 ****** END OF ADD_ESF COMPUTATION ******

     total cpu time spent up to now is     1506.5 secs

     Self-consistent Calculation

     iteration #  1     ecut=    30.00 Ry     beta=0.70
     Davidson diagonalization with overlap
     ethr =  1.00E-06,  avg # of iterations =  7.0

     negative rho (up, down):  0.505E-01 0.000E+00

     total cpu time spent up to now is     1518.0 secs

     total energy              =    -129.95753538 Ry
     Harris-Foulkes estimate   =    -129.95807979 Ry
     estimated scf accuracy    <       0.00137819 Ry

     iteration #  2     ecut=    30.00 Ry     beta=0.70
     Davidson diagonalization with overlap
     ethr =  3.83E-06,  avg # of iterations =  3.0

     negative rho (up, down):  0.506E-01 0.000E+00

     total cpu time spent up to now is     1527.3 secs

     total energy              =    -129.95771494 Ry
     Harris-Foulkes estimate   =    -129.95788423 Ry
     estimated scf accuracy    <       0.00031763 Ry

     iteration #  3     ecut=    30.00 Ry     beta=0.70
     Davidson diagonalization with overlap
     ethr =  8.82E-07,  avg # of iterations =  3.0

     negative rho (up, down):  0.507E-01 0.000E+00

     total cpu time spent up to now is     1536.8 secs

     total energy              =    -129.95780913 Ry
     Harris-Foulkes estimate   =    -129.95783690 Ry
     estimated scf accuracy    <       0.00006826 Ry

     iteration #  4     ecut=    30.00 Ry     beta=0.70
     Davidson diagonalization with overlap
     ethr =  1.90E-07,  avg # of iterations =  3.0

     negative rho (up, down):  0.508E-01 0.000E+00

     total cpu time spent up to now is     1546.1 secs

     total energy              =    -129.95782346 Ry
     Harris-Foulkes estimate   =    -129.95782368 Ry
     estimated scf accuracy    <       0.00000171 Ry

     iteration #  5     ecut=    30.00 Ry     beta=0.70
     Davidson diagonalization with overlap
     ethr =  4.76E-09,  avg # of iterations =  4.0

     negative rho (up, down):  0.508E-01 0.000E+00

     total cpu time spent up to now is     1555.9 secs

     total energy              =    -129.95782378 Ry
     Harris-Foulkes estimate   =    -129.95782411 Ry
     estimated scf accuracy    <       0.00000071 Ry

     iteration #  6     ecut=    30.00 Ry     beta=0.70
     Davidson diagonalization with overlap
     ethr =  1.98E-09,  avg # of iterations =  4.0

     negative rho (up, down):  0.508E-01 0.000E+00

     total cpu time spent up to now is     1565.3 secs

     total energy              =    -129.95782394 Ry
     Harris-Foulkes estimate   =    -129.95782407 Ry
     estimated scf accuracy    <       0.00000031 Ry

     iteration #  7     ecut=    30.00 Ry     beta=0.70
     Davidson diagonalization with overlap
     ethr =  8.65E-10,  avg # of iterations =  4.0

     negative rho (up, down):  0.508E-01 0.000E+00

     total cpu time spent up to now is     1574.4 secs

     total energy              =    -129.95782400 Ry
     Harris-Foulkes estimate   =    -129.95782401 Ry
     estimated scf accuracy    <       0.00000003 Ry

     iteration #  8     ecut=    30.00 Ry     beta=0.70
     Davidson diagonalization with overlap
     ethr =  8.41E-11,  avg # of iterations =  3.0

     negative rho (up, down):  0.508E-01 0.000E+00

     total cpu time spent up to now is     1582.4 secs

     End of self-consistent calculation

          k = 0.0000 0.0000 0.0000 ( 37387 PWs)   bands (ev):

   -27.0571 -26.4982 -24.0454 -20.9799 -17.7276 -16.5325 -15.9147 -14.3703
   -13.2384 -12.0081 -11.4015 -10.9610 -10.6386 -10.1052  -9.8691  -6.6173
    -6.2828  -6.0207

!    total energy              =    -129.95782400 Ry
     Harris-Foulkes estimate   =    -129.95782400 Ry
     estimated scf accuracy    <          3.8E-09 Ry

     convergence has been achieved in   8 iterations

     Forces acting on atoms (Ry/au):

     atom    1 type  1   force =    -0.06457335   -0.02462153   -0.10753656
     atom    2 type  2   force =    -0.11719269    0.03040415   -0.16429301
     atom    3 type  1   force =    -0.00682693   -0.10489853    0.07518302
     atom    4 type  3   force =    -0.03760292   -0.01304365    0.01804155
     atom    5 type  4   force =    -0.04440881    0.05263056    0.03589021
     atom    6 type  5   force =    -0.00350585    0.03763503    0.01665685
     atom    7 type  5   force =     0.01371092    0.00223277    0.02748736
     atom    8 type  5   force =     0.00533954    0.00902844    0.01157512
     atom    9 type  6   force =     0.01050893   -0.00532899    0.01058623
     atom   10 type  3   force =    -0.00610429   -0.01358322   -0.03017158
     atom   11 type  7   force =    -0.01454763    0.00233059   -0.02063788
     atom   12 type  7   force =     0.00314412    0.00407085    0.00333582
     atom   13 type  7   force =    -0.01165532   -0.01319397    0.00464371

     Total force =     0.296525     Total SCF correction =     0.000084

     Entering Dynamics:    iteration =     8
                           time      =   0.0077 pico-seconds


ATOMIC_POSITIONS (angstrom)
O        6.714795059   9.835968182   8.253921923
C1       7.442589467   9.026242550   8.999057636
O        7.864201831   9.191744566  10.078727411
C2       7.800191853   7.684198964   8.243988546
N        7.105589264   7.624376720   6.879565457
H1       7.382681826   6.798350736   6.332879229
H1       7.232911394   8.543056468   6.405186688
H1       6.076306460   7.606048267   6.978603687
H2       7.312115722   6.835605408   8.765958055
C2       9.268515347   7.532691387   8.077499760
H3       9.709069488   8.408679446   7.565853195
H3       9.558861281   6.616252049   7.538518475
H3       9.734165216   7.532006714   9.071140090


     kinetic energy (Ekin) =     0.06278791 Ry
     temperature           =   550.74526023 K 
     Ekin + Etot (const)   =  -129.89503609 Ry
     Message from routine dynamics:
     Total linear momentum <> 0

     Linear momentum :   -0.0723706295   -0.3629396481    0.1157819644

     Writing output data file alanine.save
 ****** END OF FORCE_ESF COMPUTATION ******
     Check: negative starting charge=   -0.029239
     NEW-OLD atomic charge density approx. for the potential
     Check: negative starting charge=   -0.029225

     negative rho (up, down):  0.520E-01 0.000E+00
 ****** END OF ADD_ESF COMPUTATION ******

     total cpu time spent up to now is     1714.4 secs

     Self-consistent Calculation

     iteration #  1     ecut=    30.00 Ry     beta=0.70
     Davidson diagonalization with overlap
     ethr =  1.00E-06,  avg # of iterations =  6.0

     negative rho (up, down):  0.507E-01 0.000E+00

     total cpu time spent up to now is     1725.9 secs

     total energy              =    -129.92149885 Ry
     Harris-Foulkes estimate   =    -129.92215392 Ry
     estimated scf accuracy    <       0.00153541 Ry

     iteration #  2     ecut=    30.00 Ry     beta=0.70
     Davidson diagonalization with overlap
     ethr =  4.27E-06,  avg # of iterations =  3.0

     negative rho (up, down):  0.508E-01 0.000E+00

     total cpu time spent up to now is     1735.3 secs

     total energy              =    -129.92171187 Ry
     Harris-Foulkes estimate   =    -129.92203415 Ry
     estimated scf accuracy    <       0.00060036 Ry

     iteration #  3     ecut=    30.00 Ry     beta=0.70
     Davidson diagonalization with overlap
     ethr =  1.67E-06,  avg # of iterations =  3.0

     negative rho (up, down):  0.509E-01 0.000E+00

     total cpu time spent up to now is     1744.8 secs

     total energy              =    -129.92187279 Ry
     Harris-Foulkes estimate   =    -129.92190662 Ry
     estimated scf accuracy    <       0.00008446 Ry

     iteration #  4     ecut=    30.00 Ry     beta=0.70
     Davidson diagonalization with overlap
     ethr =  2.35E-07,  avg # of iterations =  4.0

     negative rho (up, down):  0.509E-01 0.000E+00

     total cpu time spent up to now is     1754.2 secs

     total energy              =    -129.92188630 Ry
     Harris-Foulkes estimate   =    -129.92189824 Ry
     estimated scf accuracy    <       0.00002701 Ry

     iteration #  5     ecut=    30.00 Ry     beta=0.70
     Davidson diagonalization with overlap
     ethr =  7.50E-08,  avg # of iterations =  4.0

     negative rho (up, down):  0.509E-01 0.000E+00

     total cpu time spent up to now is     1763.3 secs

     total energy              =    -129.92189292 Ry
     Harris-Foulkes estimate   =    -129.92189418 Ry
     estimated scf accuracy    <       0.00000377 Ry

     iteration #  6     ecut=    30.00 Ry     beta=0.70
     Davidson diagonalization with overlap
     ethr =  1.05E-08,  avg # of iterations =  4.0

     negative rho (up, down):  0.509E-01 0.000E+00

     total cpu time spent up to now is     1772.4 secs

     total energy              =    -129.92189364 Ry
     Harris-Foulkes estimate   =    -129.92189375 Ry
     estimated scf accuracy    <       0.00000022 Ry

     iteration #  7     ecut=    30.00 Ry     beta=0.70
     Davidson diagonalization with overlap
     ethr =  6.23E-10,  avg # of iterations =  4.0

     negative rho (up, down):  0.510E-01 0.000E+00

     total cpu time spent up to now is     1782.0 secs

     total energy              =    -129.92189371 Ry
     Harris-Foulkes estimate   =    -129.92189373 Ry
     estimated scf accuracy    <       0.00000007 Ry

     iteration #  8     ecut=    30.00 Ry     beta=0.70
     Davidson diagonalization with overlap
     ethr =  1.84E-10,  avg # of iterations =  3.0

     negative rho (up, down):  0.510E-01 0.000E+00

     total cpu time spent up to now is     1789.6 secs

     End of self-consistent calculation

          k = 0.0000 0.0000 0.0000 ( 37387 PWs)   bands (ev):

   -27.1449 -26.6643 -24.0009 -20.9797 -17.6439 -16.5558 -15.8846 -14.2807
   -13.1402 -12.0447 -11.4428 -10.9373 -10.6361 -10.2033  -9.9819  -6.6550
    -6.2645  -6.0997

!    total energy              =    -129.92189371 Ry
     Harris-Foulkes estimate   =    -129.92189372 Ry
     estimated scf accuracy    <          4.5E-09 Ry

     convergence has been achieved in   8 iterations

     Forces acting on atoms (Ry/au):

     atom    1 type  1   force =    -0.05136506   -0.03014406   -0.08419484
     atom    2 type  2   force =    -0.14633150    0.01719508   -0.25006808
     atom    3 type  1   force =     0.01655611   -0.08410363    0.14431559
     atom    4 type  3   force =    -0.05899457   -0.01540171    0.01333480
     atom    5 type  4   force =    -0.02707272    0.06603187    0.05634183
     atom    6 type  5   force =     0.00666400    0.01938761    0.00568560
     atom    7 type  5   force =     0.01666524    0.01627452    0.01316305
     atom    8 type  5   force =    -0.01125530    0.00572694    0.02533248
     atom    9 type  6   force =     0.01332087   -0.00709463    0.01589765
     atom   10 type  3   force =     0.00391770   -0.01055369   -0.02227766
     atom   11 type  7   force =    -0.01467172    0.00402108   -0.02268503
     atom   12 type  7   force =     0.00303812    0.00130827    0.00202426
     atom   13 type  7   force =    -0.01392464   -0.01438711    0.00073263

     Total force =     0.373432     Total SCF correction =     0.000066

     Entering Dynamics:    iteration =     9
                           time      =   0.0087 pico-seconds


ATOMIC_POSITIONS (angstrom)
O        6.708546460   9.834370300   8.244510826
C1       7.440538144   9.033775940   9.012203897
O        7.864954479   9.181612728  10.078325282
C2       7.807236443   7.681044586   8.249931146
N        7.098339999   7.617062669   6.878358492
H1       7.371073598   6.814167652   6.324782281
H1       7.244159678   8.540690196   6.445848310
H1       6.077248884   7.615072132   6.935676354
H2       7.308289223   6.835299482   8.759239718
C2       9.268583233   7.528067710   8.076355500
H3       9.713669746   8.404084271   7.571992921
H3       9.569569795   6.614997583   7.542983103
H3       9.737847534   7.535337265   9.073411817


     kinetic energy (Ekin) =     0.05772547 Ry
     temperature           =   506.34001080 K 
     Ekin + Etot (const)   =  -129.86416824 Ry
     Message from routine dynamics:
     Total linear momentum <> 0

     Linear momentum :   -0.1619147000   -0.3921912176    0.0536611376

     Writing output data file alanine.save
 ****** END OF FORCE_ESF COMPUTATION ******
     Check: negative starting charge=   -0.029225
     NEW-OLD atomic charge density approx. for the potential
     Check: negative starting charge=   -0.029229

     negative rho (up, down):  0.522E-01 0.000E+00
 ****** END OF ADD_ESF COMPUTATION ******

     total cpu time spent up to now is     1921.6 secs

     Self-consistent Calculation

     iteration #  1     ecut=    30.00 Ry     beta=0.70
     Davidson diagonalization with overlap
     ethr =  1.00E-06,  avg # of iterations =  5.0

     negative rho (up, down):  0.508E-01 0.000E+00

     total cpu time spent up to now is     1933.1 secs

     total energy              =    -129.84208145 Ry
     Harris-Foulkes estimate   =    -129.84259989 Ry
     estimated scf accuracy    <       0.00128105 Ry

     iteration #  2     ecut=    30.00 Ry     beta=0.70
     Davidson diagonalization with overlap
     ethr =  3.56E-06,  avg # of iterations =  3.0

     negative rho (up, down):  0.510E-01 0.000E+00

     total cpu time spent up to now is     1942.8 secs

     total energy              =    -129.84226058 Ry
     Harris-Foulkes estimate   =    -129.84261642 Ry
     estimated scf accuracy    <       0.00068298 Ry

     iteration #  3     ecut=    30.00 Ry     beta=0.70
     Davidson diagonalization with overlap
     ethr =  1.90E-06,  avg # of iterations =  3.0

     negative rho (up, down):  0.511E-01 0.000E+00

     total cpu time spent up to now is     1952.0 secs

     total energy              =    -129.84242609 Ry
     Harris-Foulkes estimate   =    -129.84246493 Ry
     estimated scf accuracy    <       0.00009249 Ry

     iteration #  4     ecut=    30.00 Ry     beta=0.70
     Davidson diagonalization with overlap
     ethr =  2.57E-07,  avg # of iterations =  4.0

     negative rho (up, down):  0.511E-01 0.000E+00

     total cpu time spent up to now is     1961.4 secs

     total energy              =    -129.84244206 Ry
     Harris-Foulkes estimate   =    -129.84246378 Ry
     estimated scf accuracy    <       0.00005584 Ry

     iteration #  5     ecut=    30.00 Ry     beta=0.70
     Davidson diagonalization with overlap
     ethr =  1.55E-07,  avg # of iterations =  4.0

     negative rho (up, down):  0.511E-01 0.000E+00

     total cpu time spent up to now is     1970.4 secs

     total energy              =    -129.84245289 Ry
     Harris-Foulkes estimate   =    -129.84245332 Ry
     estimated scf accuracy    <       0.00000137 Ry

     iteration #  6     ecut=    30.00 Ry     beta=0.70
     Davidson diagonalization with overlap
     ethr =  3.80E-09,  avg # of iterations =  4.0

     negative rho (up, down):  0.511E-01 0.000E+00

     total cpu time spent up to now is     1980.2 secs

     total energy              =    -129.84245338 Ry
     Harris-Foulkes estimate   =    -129.84245354 Ry
     estimated scf accuracy    <       0.00000036 Ry

     iteration #  7     ecut=    30.00 Ry     beta=0.70
     Davidson diagonalization with overlap
     ethr =  9.94E-10,  avg # of iterations =  3.0

     negative rho (up, down):  0.511E-01 0.000E+00

     total cpu time spent up to now is     1989.3 secs

     total energy              =    -129.84245345 Ry
     Harris-Foulkes estimate   =    -129.84245347 Ry
     estimated scf accuracy    <       0.00000004 Ry

     iteration #  8     ecut=    30.00 Ry     beta=0.70
     Davidson diagonalization with overlap
     ethr =  1.06E-10,  avg # of iterations =  3.0

     negative rho (up, down):  0.511E-01 0.000E+00

     total cpu time spent up to now is     1997.2 secs

     End of self-consistent calculation

          k = 0.0000 0.0000 0.0000 ( 37387 PWs)   bands (ev):

   -27.2680 -26.7047 -23.9516 -20.9574 -17.5609 -16.5541 -15.8384 -14.1792
   -13.0287 -12.0649 -11.4672 -10.9102 -10.6172 -10.2715 -10.0497  -6.6716
    -6.3010  -6.0877

!    total energy              =    -129.84245346 Ry
     Harris-Foulkes estimate   =    -129.84245346 Ry
     estimated scf accuracy    <          1.1E-09 Ry

     convergence has been achieved in   8 iterations

     Forces acting on atoms (Ry/au):

     atom    1 type  1   force =    -0.03979191   -0.03249950   -0.06209314
     atom    2 type  2   force =    -0.16515711    0.00561364   -0.31187281
     atom    3 type  1   force =     0.03339732   -0.06695500    0.19485570
     atom    4 type  3   force =    -0.07598617   -0.01690646    0.00901150
     atom    5 type  4   force =    -0.00977685    0.07706254    0.07655846
     atom    6 type  5   force =     0.01687803    0.00045576   -0.00594582
     atom    7 type  5   force =     0.01924850    0.03047017    0.00031224
     atom    8 type  5   force =    -0.02867754    0.00308534    0.03628496
     atom    9 type  6   force =     0.01479944   -0.00956515    0.02116938
     atom   10 type  3   force =     0.01269089   -0.00712701   -0.01411128
     atom   11 type  7   force =    -0.01432543    0.00586623   -0.02448657
     atom   12 type  7   force =     0.00281905   -0.00167366    0.00052718
     atom   13 type  7   force =    -0.01592721   -0.01525485   -0.00297854

     Total force =     0.446043     Total SCF correction =     0.000036

     Entering Dynamics:    iteration =    10
                           time      =   0.0097 pico-seconds


ATOMIC_POSITIONS (angstrom)
O        6.702116060   9.832061353   8.235119489
C1       7.435172131   9.041769761   9.019553266
O        7.866546638   9.171677653  10.081425687
C2       7.812467726   7.677536855   8.255837714
N        7.090504713   7.610209940   6.877279828
H1       7.363218866   6.826849730   6.311061934
H1       7.257722726   8.541381636   6.483256028
H1       6.074376759   7.623513566   6.898274622
H2       7.307426949   6.834983751   8.756126148
C2       9.268926073   7.523371311   8.075101413
H3       9.717258223   8.399634644   7.576771853
H3       9.580328322   6.612839725   7.547435508
H3       9.740275132   7.537644502   9.074701621


     kinetic energy (Ekin) =     0.04960584 Ry
     temperature           =   435.11851974 K 
     Ekin + Etot (const)   =  -129.79284762 Ry
     Message from routine dynamics:
     Total linear momentum <> 0

     Linear momentum :   -0.2379148599   -0.3976799560    0.0316336915

     Writing output data file alanine.save
 ****** END OF FORCE_ESF COMPUTATION ******
     Check: negative starting charge=   -0.029229
     NEW-OLD atomic charge density approx. for the potential
     Check: negative starting charge=   -0.029288

     negative rho (up, down):  0.523E-01 0.000E+00
 ****** END OF ADD_ESF COMPUTATION ******

     total cpu time spent up to now is     2129.1 secs

     Self-consistent Calculation

     iteration #  1     ecut=    30.00 Ry     beta=0.70
     Davidson diagonalization with overlap
     ethr =  1.00E-06,  avg # of iterations =  5.0

     negative rho (up, down):  0.509E-01 0.000E+00

     total cpu time spent up to now is     2140.1 secs

     total energy              =    -129.72792790 Ry
     Harris-Foulkes estimate   =    -129.72815189 Ry
     estimated scf accuracy    <       0.00077951 Ry

     iteration #  2     ecut=    30.00 Ry     beta=0.70
     Davidson diagonalization with overlap
     ethr =  2.17E-06,  avg # of iterations =  4.0

     negative rho (up, down):  0.512E-01 0.000E+00

     total cpu time spent up to now is     2149.8 secs

     total energy              =    -129.72800069 Ry
     Harris-Foulkes estimate   =    -129.72827953 Ry
     estimated scf accuracy    <       0.00055815 Ry

     iteration #  3     ecut=    30.00 Ry     beta=0.70
     Davidson diagonalization with overlap
     ethr =  1.55E-06,  avg # of iterations =  4.0

     negative rho (up, down):  0.513E-01 0.000E+00

     total cpu time spent up to now is     2159.3 secs

     total energy              =    -129.72812534 Ry
     Harris-Foulkes estimate   =    -129.72818259 Ry
     estimated scf accuracy    <       0.00013846 Ry

     iteration #  4     ecut=    30.00 Ry     beta=0.70
     Davidson diagonalization with overlap
     ethr =  3.85E-07,  avg # of iterations =  4.0

     negative rho (up, down):  0.513E-01 0.000E+00

     total cpu time spent up to now is     2168.5 secs

     total energy              =    -129.72815664 Ry
     Harris-Foulkes estimate   =    -129.72817011 Ry
     estimated scf accuracy    <       0.00003600 Ry

     iteration #  5     ecut=    30.00 Ry     beta=0.70
     Davidson diagonalization with overlap
     ethr =  1.00E-07,  avg # of iterations =  4.0

     negative rho (up, down):  0.513E-01 0.000E+00

     total cpu time spent up to now is     2177.5 secs

     total energy              =    -129.72816279 Ry
     Harris-Foulkes estimate   =    -129.72816343 Ry
     estimated scf accuracy    <       0.00000136 Ry

     iteration #  6     ecut=    30.00 Ry     beta=0.70
     Davidson diagonalization with overlap
     ethr =  3.79E-09,  avg # of iterations =  3.0

     negative rho (up, down):  0.513E-01 0.000E+00

     total cpu time spent up to now is     2187.5 secs

     total energy              =    -129.72816336 Ry
     Harris-Foulkes estimate   =    -129.72816357 Ry
     estimated scf accuracy    <       0.00000051 Ry

     iteration #  7     ecut=    30.00 Ry     beta=0.70
     Davidson diagonalization with overlap
     ethr =  1.43E-09,  avg # of iterations =  3.0

     negative rho (up, down):  0.513E-01 0.000E+00

     total cpu time spent up to now is     2196.7 secs

     total energy              =    -129.72816344 Ry
     Harris-Foulkes estimate   =    -129.72816345 Ry
     estimated scf accuracy    <       0.00000002 Ry

     iteration #  8     ecut=    30.00 Ry     beta=0.70
     Davidson diagonalization with overlap
     ethr =  4.49E-11,  avg # of iterations =  3.0

     negative rho (up, down):  0.513E-01 0.000E+00

     total cpu time spent up to now is     2204.7 secs

     End of self-consistent calculation

          k = 0.0000 0.0000 0.0000 ( 37387 PWs)   bands (ev):

   -27.2945 -26.6285 -23.9390 -20.9046 -17.4727 -16.4759 -15.7500 -14.0586
   -12.9050 -12.0606 -11.4642 -10.8681 -10.5779 -10.2992 -10.0475  -6.6852
    -6.3289  -6.0598

!    total energy              =    -129.72816345 Ry
     Harris-Foulkes estimate   =    -129.72816345 Ry
     estimated scf accuracy    <          1.9E-09 Ry

     convergence has been achieved in   8 iterations

     Forces acting on atoms (Ry/au):

     atom    1 type  1   force =    -0.03009646   -0.03181005   -0.04198909
     atom    2 type  2   force =    -0.16669659   -0.00250633   -0.33248250
     atom    3 type  1   force =     0.03662049   -0.05550689    0.20979332
     atom    4 type  3   force =    -0.08789068   -0.01739903    0.00524296
     atom    5 type  4   force =     0.00427984    0.08344171    0.08827051
     atom    6 type  5   force =     0.02344054   -0.01018195   -0.01195570
     atom    7 type  5   force =     0.01960429    0.03761695   -0.00748316
     atom    8 type  5   force =    -0.03850879    0.00130538    0.04337541
     atom    9 type  6   force =     0.01504696   -0.01209111    0.02568590
     atom   10 type  3   force =     0.01934984   -0.00364611   -0.00752842
     atom   11 type  7   force =    -0.01372322    0.00733533   -0.02574485
     atom   12 type  7   force =     0.00223321   -0.00404787   -0.00072806
     atom   13 type  7   force =    -0.01696699   -0.01570937   -0.00519517

     Total force =     0.471450     Total SCF correction =     0.000053

     Entering Dynamics:    iteration =    11
                           time      =   0.0106 pico-seconds


ATOMIC_POSITIONS (angstrom)
O        6.695746672   9.829208905   8.226279970
C1       7.426555639   9.050208552   9.020919006
O        7.869152533   9.162233452  10.088559061
C2       7.815749314   7.673845319   8.261944813
N        7.082443955   7.604176488   6.876827705
H1       7.360815654   6.834112804   6.290387933
H1       7.273842861   8.547387408   6.515728718
H1       6.065075736   7.631278898   6.868149121
H2       7.309727389   6.834108803   8.758160156
C2       9.269782011   7.518843068   8.074188987
H3       9.719951573   8.395846810   7.580017964
H3       9.591071677   6.609428717   7.551921255
H3       9.741138355   7.538864952   9.074753252


     kinetic energy (Ekin) =     0.04427910 Ry
     temperature           =   388.39494112 K 
     Ekin + Etot (const)   =  -129.68388435 Ry
     Message from routine dynamics:
     Total linear momentum <> 0

     Linear momentum :   -0.2952900249   -0.3793826110    0.0525185757

     Writing output data file alanine.save
 ****** END OF FORCE_ESF COMPUTATION ******
     Check: negative starting charge=   -0.029288
     NEW-OLD atomic charge density approx. for the potential
     Check: negative starting charge=   -0.029415

     negative rho (up, down):  0.525E-01 0.000E+00
 ****** END OF ADD_ESF COMPUTATION ******

     total cpu time spent up to now is     2336.7 secs

     Self-consistent Calculation

     iteration #  1     ecut=    30.00 Ry     beta=0.70
     Davidson diagonalization with overlap
     ethr =  1.00E-06,  avg # of iterations =  5.0

     negative rho (up, down):  0.510E-01 0.000E+00

     total cpu time spent up to now is     2347.8 secs

     total energy              =    -129.59413219 Ry
     Harris-Foulkes estimate   =    -129.59434517 Ry
     estimated scf accuracy    <       0.00072459 Ry

     iteration #  2     ecut=    30.00 Ry     beta=0.70
     Davidson diagonalization with overlap
     ethr =  2.01E-06,  avg # of iterations =  4.0

[...]

     negative rho (up, down):  0.508E-01 0.000E+00

     total cpu time spent up to now is    41415.0 secs

     total energy              =    -126.53303738 Ry
     Harris-Foulkes estimate   =    -126.53305052 Ry
     estimated scf accuracy    <       0.00003571 Ry

     iteration #  5     ecut=    30.00 Ry     beta=0.70
     Davidson diagonalization with overlap
     ethr =  9.92E-08,  avg # of iterations =  4.0

     negative rho (up, down):  0.508E-01 0.000E+00

     total cpu time spent up to now is    41424.2 secs

     total energy              =    -126.53304414 Ry
     Harris-Foulkes estimate   =    -126.53304435 Ry
     estimated scf accuracy    <       0.00000064 Ry

     iteration #  6     ecut=    30.00 Ry     beta=0.70
     Davidson diagonalization with overlap
     ethr =  1.78E-09,  avg # of iterations =  3.0

     negative rho (up, down):  0.508E-01 0.000E+00

     total cpu time spent up to now is    41434.3 secs

     total energy              =    -126.53304446 Ry
     Harris-Foulkes estimate   =    -126.53304464 Ry
     estimated scf accuracy    <       0.00000042 Ry

     iteration #  7     ecut=    30.00 Ry     beta=0.70
     Davidson diagonalization with overlap
     ethr =  1.16E-09,  avg # of iterations =  3.0

     negative rho (up, down):  0.508E-01 0.000E+00

     total cpu time spent up to now is    41443.7 secs

     total energy              =    -126.53304454 Ry
     Harris-Foulkes estimate   =    -126.53304455 Ry
     estimated scf accuracy    <       0.00000003 Ry

     iteration #  8     ecut=    30.00 Ry     beta=0.70
     Davidson diagonalization with overlap
     ethr =  7.88E-11,  avg # of iterations =  3.0

     negative rho (up, down):  0.508E-01 0.000E+00

     total cpu time spent up to now is    41451.8 secs

     End of self-consistent calculation

          k = 0.0000 0.0000 0.0000 ( 37387 PWs)   bands (ev):

   -25.2768 -24.7290 -23.2373 -19.1751 -15.8676 -15.0256 -14.1140 -12.5172
   -11.4525 -10.7232 -10.0618  -9.6759  -9.3992  -9.1512  -8.5162  -5.9122
    -5.5713  -5.0176

!    total energy              =    -126.53304454 Ry
     Harris-Foulkes estimate   =    -126.53304455 Ry
     estimated scf accuracy    <          4.5E-09 Ry

     convergence has been achieved in   8 iterations

     Forces acting on atoms (Ry/au):

     atom    1 type  1   force =    -0.31668553   -0.00925908    0.04472489
     atom    2 type  2   force =    -0.06624137   -0.08473691    0.05778458
     atom    3 type  1   force =    -0.08381481    0.06367470   -0.01448887
     atom    4 type  3   force =    -0.11324322    0.01299936    0.05111739
     atom    5 type  4   force =     0.09676869    0.05824280    0.16642803
     atom    6 type  5   force =    -0.02913906   -0.06545559    0.00427857
     atom    7 type  5   force =    -0.13470600   -0.02978538   -0.00893040
     atom    8 type  5   force =    -0.01727582   -0.01165020   -0.00320351
     atom    9 type  6   force =     0.00131778   -0.00798500    0.02455985
     atom   10 type  3   force =    -0.03355983   -0.03366695    0.02522883
     atom   11 type  7   force =     0.00296375   -0.01894212    0.02160347
     atom   12 type  7   force =     0.01767168   -0.00888623    0.01878626
     atom   13 type  7   force =    -0.01448697   -0.00200626   -0.00833462

     Total force =     0.463431     Total SCF correction =     0.000096

     Entering Dynamics:    iteration =   199
                           time      =   0.1925 pico-seconds


ATOMIC_POSITIONS (angstrom)
O        5.867449911   9.156719668   8.284798414
C1       6.771394365   8.597793532   9.002107568
O        6.993143981   8.350865284  10.249104823
C2       7.810708937   7.645053250   8.139897984
N        7.571577529   7.834135878   6.572633750
H1       7.768479941   8.877566186   6.421138234
H1       6.616160119   7.785585272   6.343591195
H1       8.279398938   7.286950755   6.073151936
H2       7.385364443   6.630078525   8.278057443
C2       9.273680409   7.738646044   8.423824410
H3       9.606443571   8.769118579   8.206580958
H3       9.816438021   7.011548286   7.777457246
H3       9.414816104   7.527452506   9.496259428


     kinetic energy (Ekin) =     0.10061043 Ry
     temperature           =   882.50615705 K 
     Ekin + Etot (const)   =  -126.43243412 Ry
     Message from routine dynamics:
     Total linear momentum <> 0

     Linear momentum :   -0.1027124911   -0.5009191261   -0.7366153190

     Writing output data file alanine.save
 ****** END OF FORCE_ESF COMPUTATION ******
     Check: negative starting charge=   -0.029353
     NEW-OLD atomic charge density approx. for the potential
     Check: negative starting charge=   -0.029451

     negative rho (up, down):  0.520E-01 0.000E+00
 ****** END OF ADD_ESF COMPUTATION ******

     total cpu time spent up to now is    41583.8 secs

     Self-consistent Calculation

     iteration #  1     ecut=    30.00 Ry     beta=0.70
     Davidson diagonalization with overlap
     ethr =  1.00E-06,  avg # of iterations =  5.0

     negative rho (up, down):  0.508E-01 0.000E+00

     total cpu time spent up to now is    41595.2 secs

     total energy              =    -126.53006268 Ry
     Harris-Foulkes estimate   =    -126.53044535 Ry
     estimated scf accuracy    <       0.00178181 Ry

     iteration #  2     ecut=    30.00 Ry     beta=0.70
     Davidson diagonalization with overlap
     ethr =  4.95E-06,  avg # of iterations =  3.0

     negative rho (up, down):  0.509E-01 0.000E+00

     total cpu time spent up to now is    41604.5 secs

     total energy              =    -126.53019932 Ry
     Harris-Foulkes estimate   =    -126.53051714 Ry
     estimated scf accuracy    <       0.00060447 Ry

     iteration #  3     ecut=    30.00 Ry     beta=0.70
     Davidson diagonalization with overlap
     ethr =  1.68E-06,  avg # of iterations =  4.0

     negative rho (up, down):  0.511E-01 0.000E+00

     total cpu time spent up to now is    41614.2 secs

     total energy              =    -126.53031797 Ry
     Harris-Foulkes estimate   =    -126.53046560 Ry
     estimated scf accuracy    <       0.00034354 Ry

     iteration #  4     ecut=    30.00 Ry     beta=0.70
     Davidson diagonalization with overlap
     ethr =  9.54E-07,  avg # of iterations =  4.0

     negative rho (up, down):  0.511E-01 0.000E+00

     total cpu time spent up to now is    41623.3 secs

     total energy              =    -126.53038801 Ry
     Harris-Foulkes estimate   =    -126.53042757 Ry
     estimated scf accuracy    <       0.00010616 Ry

     iteration #  5     ecut=    30.00 Ry     beta=0.70
     Davidson diagonalization with overlap
     ethr =  2.95E-07,  avg # of iterations =  4.0

     negative rho (up, down):  0.512E-01 0.000E+00

     total cpu time spent up to now is    41632.5 secs

     total energy              =    -126.53040698 Ry
     Harris-Foulkes estimate   =    -126.53040765 Ry
     estimated scf accuracy    <       0.00000158 Ry

     iteration #  6     ecut=    30.00 Ry     beta=0.70
     Davidson diagonalization with overlap
     ethr =  4.39E-09,  avg # of iterations =  3.0

     negative rho (up, down):  0.512E-01 0.000E+00

     total cpu time spent up to now is    41642.3 secs

     total energy              =    -126.53040785 Ry
     Harris-Foulkes estimate   =    -126.53040798 Ry
     estimated scf accuracy    <       0.00000031 Ry

     iteration #  7     ecut=    30.00 Ry     beta=0.70
     Davidson diagonalization with overlap
     ethr =  8.65E-10,  avg # of iterations =  3.0

     negative rho (up, down):  0.512E-01 0.000E+00

     total cpu time spent up to now is    41651.7 secs

     total energy              =    -126.53040791 Ry
     Harris-Foulkes estimate   =    -126.53040794 Ry
     estimated scf accuracy    <       0.00000006 Ry

     iteration #  8     ecut=    30.00 Ry     beta=0.70
     Davidson diagonalization with overlap
     ethr =  1.79E-10,  avg # of iterations =  3.0

     negative rho (up, down):  0.512E-01 0.000E+00

     total cpu time spent up to now is    41659.7 secs

     End of self-consistent calculation

          k = 0.0000 0.0000 0.0000 ( 37387 PWs)   bands (ev):

   -25.3038 -24.6649 -23.3514 -19.1966 -15.8294 -15.0025 -13.8780 -12.4845
   -11.4750 -10.7602 -10.0340  -9.7175  -9.3920  -9.1814  -8.5078  -5.9464
    -5.6124  -5.0328

!    total energy              =    -126.53040792 Ry
     Harris-Foulkes estimate   =    -126.53040792 Ry
     estimated scf accuracy    <          3.5E-09 Ry

     convergence has been achieved in   8 iterations

     Forces acting on atoms (Ry/au):

     atom    1 type  1   force =    -0.33310106   -0.01463914    0.04001377
     atom    2 type  2   force =    -0.04936668   -0.07116190    0.05054054
     atom    3 type  1   force =    -0.08711147    0.05565375    0.00328037
     atom    4 type  3   force =    -0.12458940   -0.01352153    0.03600115
     atom    5 type  4   force =     0.04792710    0.07101815    0.16181717
     atom    6 type  5   force =    -0.02542893   -0.07015998    0.01190710
     atom    7 type  5   force =    -0.08858673   -0.03338948   -0.00069115
     atom    8 type  5   force =    -0.02134137   -0.01707027   -0.00760887
     atom    9 type  6   force =     0.00380315    0.00592358    0.02037496
     atom   10 type  3   force =    -0.02236488   -0.02767119    0.03066754
     atom   11 type  7   force =     0.00632059   -0.01657959    0.01757416
     atom   12 type  7   force =     0.00775388   -0.00319243    0.02457635
     atom   13 type  7   force =    -0.00290764   -0.00738490    0.00312107

     Total force =     0.451188     Total SCF correction =     0.000082

     Entering Dynamics:    iteration =   200
                           time      =   0.1935 pico-seconds


ATOMIC_POSITIONS (angstrom)
O        5.870696238   9.154102121   8.282895768
C1       6.759410343   8.577731798   8.997498944
O        6.990053246   8.350968496  10.232799624
C2       7.820261047   7.654344641   8.140063943
N        7.581233191   7.832767798   6.574475188
H1       7.741858186   8.872718582   6.393457788
H1       6.574946111   7.770277998   6.369661144
H1       8.305911624   7.301002451   6.083508129
H2       7.421544774   6.616635711   8.286511010
C2       9.274468168   7.736877385   8.410009032
H3       9.605810406   8.770305636   8.225267780
H3       9.856140690   7.011518721   7.783800262
H3       9.359640964   7.543086754   9.484177650


     kinetic energy (Ekin) =     0.10701533 Ry
     temperature           =   938.68688881 K 
     Ekin + Etot (const)   =  -126.42339259 Ry
     Message from routine dynamics:
     Total linear momentum <> 0

     Linear momentum :    0.1386083736   -0.3053948627   -0.6522411217
 ****** END OF FORCE_ESF COMPUTATION ******
     Check: negative starting charge=   -0.029451
     NEW-OLD atomic charge density approx. for the potential
     Check: negative starting charge=   -0.029553

     negative rho (up, down):  0.524E-01 0.000E+00
 ****** END OF ADD_ESF COMPUTATION ******

     total cpu time spent up to now is    41790.5 secs

     Self-consistent Calculation

     iteration #  1     ecut=    30.00 Ry     beta=0.70
     Davidson diagonalization with overlap
     ethr =  1.00E-06,  avg # of iterations =  6.0

     negative rho (up, down):  0.510E-01 0.000E+00

     total cpu time spent up to now is    41802.1 secs

     total energy              =    -126.56741144 Ry
     Harris-Foulkes estimate   =    -126.56818071 Ry
     estimated scf accuracy    <       0.00240222 Ry

     iteration #  2     ecut=    30.00 Ry     beta=0.70
     Davidson diagonalization with overlap
     ethr =  6.67E-06,  avg # of iterations =  3.0

     negative rho (up, down):  0.513E-01 0.000E+00

     total cpu time spent up to now is    41811.5 secs

     total energy              =    -126.56769519 Ry
     Harris-Foulkes estimate   =    -126.56811168 Ry
     estimated scf accuracy    <       0.00078769 Ry

     iteration #  3     ecut=    30.00 Ry     beta=0.70
     Davidson diagonalization with overlap
     ethr =  2.19E-06,  avg # of iterations =  3.0

     negative rho (up, down):  0.514E-01 0.000E+00

     total cpu time spent up to now is    41820.8 secs

     total energy              =    -126.56790736 Ry
     Harris-Foulkes estimate   =    -126.56795762 Ry
     estimated scf accuracy    <       0.00013252 Ry

     iteration #  4     ecut=    30.00 Ry     beta=0.70
     Davidson diagonalization with overlap
     ethr =  3.68E-07,  avg # of iterations =  3.0

     negative rho (up, down):  0.515E-01 0.000E+00

     total cpu time spent up to now is    41830.1 secs

     total energy              =    -126.56793162 Ry
     Harris-Foulkes estimate   =    -126.56793930 Ry
     estimated scf accuracy    <       0.00001578 Ry

     iteration #  5     ecut=    30.00 Ry     beta=0.70
     Davidson diagonalization with overlap
     ethr =  4.38E-08,  avg # of iterations =  4.0

     negative rho (up, down):  0.515E-01 0.000E+00

     total cpu time spent up to now is    41839.5 secs

     total energy              =    -126.56793562 Ry
     Harris-Foulkes estimate   =    -126.56793819 Ry
     estimated scf accuracy    <       0.00000678 Ry

     iteration #  6     ecut=    30.00 Ry     beta=0.70
     Davidson diagonalization with overlap
     ethr =  1.88E-08,  avg # of iterations =  4.0

     negative rho (up, down):  0.515E-01 0.000E+00

     total cpu time spent up to now is    41848.5 secs

     total energy              =    -126.56793685 Ry
     Harris-Foulkes estimate   =    -126.56793693 Ry
     estimated scf accuracy    <       0.00000020 Ry

     iteration #  7     ecut=    30.00 Ry     beta=0.70
     Davidson diagonalization with overlap
     ethr =  5.50E-10,  avg # of iterations =  3.0

     negative rho (up, down):  0.515E-01 0.000E+00

     total cpu time spent up to now is    41858.2 secs

     total energy              =    -126.56793692 Ry
     Harris-Foulkes estimate   =    -126.56793694 Ry
     estimated scf accuracy    <       0.00000005 Ry

     iteration #  8     ecut=    30.00 Ry     beta=0.70
     Davidson diagonalization with overlap
     ethr =  1.46E-10,  avg # of iterations =  3.0

     negative rho (up, down):  0.515E-01 0.000E+00

     total cpu time spent up to now is    41866.2 secs

     End of self-consistent calculation

          k = 0.0000 0.0000 0.0000 ( 37387 PWs)   bands (ev):

   -25.3817 -24.5539 -23.4874 -19.2283 -15.8127 -14.8736 -13.6813 -12.4710
   -11.5285 -10.8136 -10.0648  -9.7351  -9.3810  -9.2168  -8.4932  -5.9987
    -5.6608  -5.0690

!    total energy              =    -126.56793693 Ry
     Harris-Foulkes estimate   =    -126.56793693 Ry
     estimated scf accuracy    <          4.7E-09 Ry

     convergence has been achieved in   8 iterations

     Forces acting on atoms (Ry/au):

     atom    1 type  1   force =    -0.35244237   -0.01940777    0.03622925
     atom    2 type  2   force =    -0.03480822   -0.05495887    0.03878076
     atom    3 type  1   force =    -0.08939450    0.04616317    0.02509713
     atom    4 type  3   force =    -0.13162363   -0.03825550    0.02026997
     atom    5 type  4   force =    -0.03515773    0.06417486    0.15091087
     atom    6 type  5   force =    -0.02016159   -0.06215461    0.01765404
     atom    7 type  5   force =    -0.01074622   -0.03053616    0.01278514
     atom    8 type  5   force =    -0.02425420   -0.02143590   -0.00934261
     atom    9 type  6   force =     0.00394833    0.01745668    0.01572570
     atom   10 type  3   force =    -0.01011680   -0.02081435    0.03911370
     atom   11 type  7   force =     0.00943076   -0.01276931    0.01322630
     atom   12 type  7   force =    -0.00220740    0.00066564    0.02830010
     atom   13 type  7   force =     0.00768479   -0.01245580    0.01440135

     Total force =     0.448259     Total SCF correction =     0.000116

     The maximum number of steps has been reached.

     End of molecular dynamics calculation

     diffusion coefficients :
     atom     1   D =       0.00010465 cm^2/s
     atom     2   D =       0.00005334 cm^2/s
     atom     3   D =       0.00013511 cm^2/s
     atom     4   D =       0.00000102 cm^2/s
     atom     5   D =       0.00002801 cm^2/s
     atom     6   D =       0.00037096 cm^2/s
     atom     7   D =       0.00007223 cm^2/s
     atom     8   D =       0.00050358 cm^2/s
     atom     9   D =       0.00002873 cm^2/s
     atom    10   D =       0.00001297 cm^2/s
     atom    11   D =       0.00005335 cm^2/s
     atom    12   D =       0.00002978 cm^2/s
     atom    13   D =       0.00002572 cm^2/s

     < D > =       0.00010919 cm^2/s

     Entering Dynamics:    iteration =   201
                           time      =   0.1945 pico-seconds


ATOMIC_POSITIONS (angstrom)
O        5.875869223   9.152953338   8.281919086
C1       6.749272483   8.557701271   8.993423242
O        6.987245535   8.353243099  10.215971257
C2       7.828915709   7.664648031   8.139803697
N        7.592092699   7.834712590   6.577806149
H1       7.718548346   8.858773573   6.367882794
H1       6.535061229   7.749176722   6.392677808
H1       8.327363375   7.313417091   6.088243724
H2       7.461455430   6.608821562   8.296523495
C2       9.276375451   7.736903207   8.396453554
H3       9.609278729   8.771839639   8.244387763
H3       9.895996405   7.016281655   7.795572455
H3       9.309495984   7.558914814   9.473269789


     kinetic energy (Ekin) =     0.11112109 Ry
     temperature           =   974.70067901 K 
     Ekin + Etot (const)   =  -126.45681583 Ry
     Message from routine dynamics:
     Total linear momentum <> 0

     Linear momentum :    0.2674315888   -0.1143332669   -0.6037927213
 ****** END OF FORCE_ESF COMPUTATION ******

     Writing output data file alanine.save
 
     init_run     :     29.96s CPU     31.04s WALL (       1 calls)
     electrons    :  12484.77s CPU  15363.93s WALL (     201 calls)
     update_pot   :    933.46s CPU   1056.87s WALL (     200 calls)
     forces       :    839.44s CPU    857.54s WALL (     201 calls)

     Called by init_run:
     wfcinit      :      1.09s CPU      1.49s WALL (       1 calls)
     potinit      :      2.80s CPU      3.06s WALL (       1 calls)

     Called by electrons:
     c_bands      :   3359.39s CPU   4578.65s WALL (    1612 calls)
     sum_band     :   3062.98s CPU   3415.05s WALL (    1612 calls)
     v_of_rho     :   2526.06s CPU   2841.64s WALL (    1813 calls)
     newd         :   2335.17s CPU   2747.10s WALL (    1813 calls)
     mix_rho      :    414.65s CPU    455.73s WALL (    1612 calls)

     Called by c_bands:
     init_us_2    :     14.92s CPU     15.89s WALL (    3225 calls)
     regterg      :   3336.50s CPU   4555.09s WALL (    1612 calls)

     Called by *egterg:
     h_psi        :   3149.72s CPU   4354.21s WALL (    7551 calls)
     s_psi        :     36.01s CPU     36.12s WALL (    7551 calls)
     g_psi        :      4.82s CPU      4.76s WALL (    5938 calls)
     rdiaghg      :     10.80s CPU     10.88s WALL (    7350 calls)

     Called by h_psi:
     add_vuspsi   :     35.86s CPU     35.80s WALL (    7551 calls)

     General routines
     calbec       :     66.40s CPU     66.80s WALL (    9967 calls)
     fft          :   3490.94s CPU   3940.29s WALL (   28806 calls)
     ffts         :    127.68s CPU    166.75s WALL (    3425 calls)
     fftw         :   3309.38s CPU   4697.23s WALL (  110198 calls)
     interpolate  :    552.41s CPU    668.44s WALL (    3425 calls)
     davcio       :      0.03s CPU      3.97s WALL (    1612 calls)
 
     Parallel routines
     fft_scatter  :   4010.76s CPU   5699.49s WALL (  142429 calls)
 
     PWSCF        :    10h46m CPU       11h39m WALL

 
   This run was terminated on:   3:47:49  13Dec2011            

=------------------------------------------------------------------------------=
   JOB DONE.
=------------------------------------------------------------------------------=
