
     Program PWSCF v.4.3.2      starts on 12Dec2011 at 15:45:52 

     This program is part of the open-source Quantum ESPRESSO suite
     for quantum simulation of materials; please cite
         "P. Giannozzi et al., J. Phys.:Condens. Matter 21 395502 (2009);
          URL http://www.quantum-espresso.org", 
     in publications or presentations arising from this work. More details at
     http://www.quantum-espresso.org/quote.php

     Parallel version (MPI), running on    16 processors
     R & G space division:  proc/pool =   16

     Current dimensions of program PWSCF are:
     Max number of different atomic species (ntypx) = 10
     Max number of k-points (npk) =  40000
     Max angular momentum in pseudopotentials (lmaxx) =  3
     Waiting for input...
     Reading input from stdin

     gamma-point specific algorithms are used
 XXXXXXXXXX Plain mechanical coupling execution XXXXXXXX
 XXXXXXXXXX Plain mechanical coupling execution XXXXXXXX
 XXXXXXXXXX Plain mechanical coupling execution XXXXXXXX
 XXXXXXXXXX Plain mechanical coupling execution XXXXXXXX
 XXXXXXXXXX Plain mechanical coupling execution XXXXXXXX
 XXXXXXXXXX Plain mechanical coupling execution XXXXXXXX
 XXXXXXXXXX Plain mechanical coupling execution XXXXXXXX
 XXXXXXXXXX Plain mechanical coupling execution XXXXXXXX
 XXXXXXXXXX Plain mechanical coupling execution XXXXXXXX
 XXXXXXXXXX Plain mechanical coupling execution XXXXXXXX
 XXXXXXXXXX Plain mechanical coupling execution XXXXXXXX
 XXXXXXXXXX Plain mechanical coupling execution XXXXXXXX
 XXXXXXXXXX Plain mechanical coupling execution XXXXXXXX
 XXXXXXXXXX Plain mechanical coupling execution XXXXXXXX
 XXXXXXXXXX Plain mechanical coupling execution XXXXXXXX
 XXXXXXXXXX Plain mechanical coupling execution XXXXXXXX

     Subspace diagonalization in iterative solution of the eigenvalue problem:
     a serial algorithm will be used

 
     Parallelization info
     --------------------
     sticks:   dense  smooth     PW     G-vecs:    dense   smooth      PW
     Min        1339     536    134               148051    37396    4670
     Max        1342     538    135               148062    37478    4675
     Sum       21465    8585   2145              2368925   599161   74773
     Tot       10733    4293   1073
 

     Title: 
     Alanine                                                                    


     bravais-lattice index     =            0
     lattice parameter (alat)  =      30.0000  a.u.
     unit-cell volume          =   27000.0000 (a.u.)^3
     number of atoms/cell      =           13
     number of atomic types    =            7
     number of electrons       =        36.00
     number of Kohn-Sham states=           18
     kinetic-energy cutoff     =      30.0000  Ry
     charge density cutoff     =     300.0000  Ry
     convergence threshold     =      1.0E-08
     mixing beta               =       0.7000
     number of iterations used =            8  plain     mixing
     Exchange-correlation      =  SLA  PW   PBE  PBE ( 1 4 3 4 0)
     EXX-fraction              =        0.00
     nstep                     =          200


     celldm(1)=  30.000000  celldm(2)=   0.000000  celldm(3)=   0.000000
     celldm(4)=   0.000000  celldm(5)=   0.000000  celldm(6)=   0.000000

     crystal axes: (cart. coord. in units of alat)
               a(1) = (   1.000000   0.000000   0.000000 )  
               a(2) = (   0.000000   1.000000   0.000000 )  
               a(3) = (   0.000000   0.000000   1.000000 )  

     reciprocal axes: (cart. coord. in units 2 pi/alat)
               b(1) = (  1.000000  0.000000  0.000000 )  
               b(2) = (  0.000000  1.000000  0.000000 )  
               b(3) = (  0.000000  0.000000  1.000000 )  


     PseudoPot. # 1 for C  read from file:
     pseudo/C.pbe-van_bm.UPF
     MD5 check sum: 1a69bf6b8db32088f5b2163dbdb77a27
     Pseudo is Ultrasoft, Zval =  4.0
     Generated by new atomic code, or converted to UPF format
     Using radial grid of  721 points,  4 beta functions with: 
                l(1) =   0
                l(2) =   0
                l(3) =   1
                l(4) =   1
     Q(r) pseudized with  8 coefficients,  rinner =    0.800   0.800   0.800


     PseudoPot. # 2 for C  read from file:
     pseudo/C.pbe-van_bm.UPF
     MD5 check sum: 1a69bf6b8db32088f5b2163dbdb77a27
     Pseudo is Ultrasoft, Zval =  4.0
     Generated by new atomic code, or converted to UPF format
     Using radial grid of  721 points,  4 beta functions with: 
                l(1) =   0
                l(2) =   0
                l(3) =   1
                l(4) =   1
     Q(r) pseudized with  8 coefficients,  rinner =    0.800   0.800   0.800


     PseudoPot. # 3 for H  read from file:
     pseudo/H.pbe-van_ak.UPF
     MD5 check sum: 077eb6d537518a38cb46c6de387227b7
     Pseudo is Ultrasoft, Zval =  1.0
     Generated by new atomic code, or converted to UPF format
     Using radial grid of  615 points,  1 beta functions with: 
                l(1) =   0
     Q(r) pseudized with  8 coefficients,  rinner =    0.800

     PseudoPot. # 4 for H  read from file:
     pseudo/H.pbe-van_ak.UPF
     MD5 check sum: 077eb6d537518a38cb46c6de387227b7
     Pseudo is Ultrasoft, Zval =  1.0
     Generated by new atomic code, or converted to UPF format
     Using radial grid of  615 points,  1 beta functions with: 
                l(1) =   0
     Q(r) pseudized with  8 coefficients,  rinner =    0.800

     PseudoPot. # 5 for H  read from file:
     pseudo/H.pbe-van_ak.UPF
     MD5 check sum: 077eb6d537518a38cb46c6de387227b7
     Pseudo is Ultrasoft, Zval =  1.0
     Generated by new atomic code, or converted to UPF format
     Using radial grid of  615 points,  1 beta functions with: 
                l(1) =   0
     Q(r) pseudized with  8 coefficients,  rinner =    0.800

     PseudoPot. # 6 for O  read from file:
     pseudo/O.pbe-van_bm.UPF
     MD5 check sum: ca2828d9fb1f294809e918903b7648d1
     Pseudo is Ultrasoft, Zval =  6.0
     Generated by new atomic code, or converted to UPF format
     Using radial grid of  737 points,  4 beta functions with: 
                l(1) =   0
                l(2) =   0
                l(3) =   1
                l(4) =   1
     Q(r) pseudized with  8 coefficients,  rinner =    0.800   0.800   0.800


     PseudoPot. # 7 for N  read from file:
     pseudo/N.pbe-van_bm.UPF
     MD5 check sum: 90d10febe142ad51ac9d5be1deb811c4
     Pseudo is Ultrasoft, Zval =  5.0
     Generated by new atomic code, or converted to UPF format
     Using radial grid of  729 points,  4 beta functions with: 
                l(1) =   0
                l(2) =   0
                l(3) =   1
                l(4) =   1
     Q(r) pseudized with  8 coefficients,  rinner =    0.800   0.800   0.800


     atomic species   valence    mass     pseudopotential
        C1             4.00    12.01100     C ( 1.00)
        C2             4.00    12.01100     C ( 1.00)
        H1             1.00     1.00800     H ( 1.00)
        H2             1.00     1.00800     H ( 1.00)
        H3             1.00     1.00800     H ( 1.00)
        O              6.00    15.99900     O ( 1.00)
        N              5.00    14.00700     N ( 1.00)

     No symmetry found



   Cartesian axes

     site n.     atom                  positions (alat units)
         1           O   tau(   1) = (   0.4246785   0.6191567   0.5224723  )
         2           C1  tau(   2) = (   0.4670950   0.5665926   0.5589953  )
         3           O   tau(   3) = (   0.4952915   0.5820186   0.6363628  )
         4           C2  tau(   4) = (   0.4876653   0.4844657   0.5169049  )
         5           N   tau(   5) = (   0.4488543   0.4823752   0.4327217  )
         6           H1  tau(   6) = (   0.4673425   0.4297625   0.4024945  )
         7           H1  tau(   7) = (   0.4522890   0.5320326   0.3934032  )
         8           H1  tau(   8) = (   0.3893993   0.4762152   0.4541401  )
         9           H2  tau(   9) = (   0.4640755   0.4317496   0.5549601  )
        10           C2  tau(  10) = (   0.5836917   0.4755757   0.5083363  )
        11           H3  tau(  11) = (   0.6090358   0.5300465   0.4740689  )
        12           H3  tau(  12) = (   0.5984146   0.4174022   0.4735669  )
        13           H3  tau(  13) = (   0.6121673   0.4726069   0.5715732  )

     number of k points=     1
                       cart. coord. in units 2pi/alat
        k(    1) = (   0.0000000   0.0000000   0.0000000), wk =   2.0000000

     Dense  grid:  1184463 G-vectors     FFT dimensions: ( 180, 180, 180)

     Smooth grid:   299581 G-vectors     FFT dimensions: ( 108, 108, 108)

     Largest allocated arrays     est. size (Mb)     dimensions
        Kohn-Sham Wavefunctions         0.64 Mb     (   2337,   18)
        NL pseudopotentials             1.96 Mb     (   2337,   55)
        Each V/rho on FFT grid          5.93 Mb     ( 388800)
        Each G-vector array             0.56 Mb     (  74029)
        G-vector shells                 0.04 Mb     (   5430)
     Largest temporary arrays     est. size (Mb)     dimensions
        Auxiliary wavefunctions         1.28 Mb     (   2337,   72)
        Each subspace H/S matrix        0.04 Mb     (  72,  72)
        Each <psi_i|beta_j> matrix      0.01 Mb     (     55,   18)
        Arrays for rho mixing          47.46 Mb     ( 388800,   8)

     Initial potential from superposition of free atoms
     Check: negative starting charge=   -0.029512

     starting charge   35.99980, renormalised to   36.00000

     negative rho (up, down):  0.295E-01 0.000E+00
     Starting wfc are   31 atomic wfcs

     total cpu time spent up to now is        5.7 secs

     Self-consistent Calculation

     iteration #  1     ecut=    30.00 Ry     beta=0.70
     Davidson diagonalization with overlap
     ethr =  1.00E-02,  avg # of iterations =  2.0

     negative rho (up, down):  0.318E-01 0.000E+00

     total cpu time spent up to now is       11.0 secs

     total energy              =    -125.68617092 Ry
     Harris-Foulkes estimate   =    -126.92053989 Ry
     estimated scf accuracy    <       1.80116479 Ry

     iteration #  2     ecut=    30.00 Ry     beta=0.70
     Davidson diagonalization with overlap
     ethr =  5.00E-03,  avg # of iterations =  7.0

     negative rho (up, down):  0.307E-01 0.000E+00

     total cpu time spent up to now is       17.0 secs

     total energy              =    -124.95938486 Ry
     Harris-Foulkes estimate   =    -126.85284281 Ry
     estimated scf accuracy    <       4.87272451 Ry

     iteration #  3     ecut=    30.00 Ry     beta=0.70
     Davidson diagonalization with overlap
     ethr =  5.00E-03,  avg # of iterations =  4.0

     negative rho (up, down):  0.428E-01 0.000E+00

     total cpu time spent up to now is       22.8 secs

     total energy              =    -126.27436390 Ry
     Harris-Foulkes estimate   =    -126.57353572 Ry
     estimated scf accuracy    <       0.89389648 Ry

     iteration #  4     ecut=    30.00 Ry     beta=0.70
     Davidson diagonalization with overlap
     ethr =  2.48E-03,  avg # of iterations =  3.0

     negative rho (up, down):  0.471E-01 0.000E+00

     total cpu time spent up to now is       27.7 secs

     total energy              =    -126.30997061 Ry
     Harris-Foulkes estimate   =    -126.36692893 Ry
     estimated scf accuracy    <       0.20684137 Ry

     iteration #  5     ecut=    30.00 Ry     beta=0.70
     Davidson diagonalization with overlap
     ethr =  5.75E-04,  avg # of iterations =  2.0

     negative rho (up, down):  0.482E-01 0.000E+00

     total cpu time spent up to now is       32.7 secs

     total energy              =    -126.29752593 Ry
     Harris-Foulkes estimate   =    -126.32657646 Ry
     estimated scf accuracy    <       0.10076569 Ry

     iteration #  6     ecut=    30.00 Ry     beta=0.70
     Davidson diagonalization with overlap
     ethr =  2.80E-04,  avg # of iterations =  2.0

     negative rho (up, down):  0.496E-01 0.000E+00

     total cpu time spent up to now is       37.4 secs

     total energy              =    -126.29050552 Ry
     Harris-Foulkes estimate   =    -126.30267467 Ry
     estimated scf accuracy    <       0.03016431 Ry

     iteration #  7     ecut=    30.00 Ry     beta=0.70
     Davidson diagonalization with overlap
     ethr =  8.38E-05,  avg # of iterations =  3.0

     negative rho (up, down):  0.503E-01 0.000E+00

     total cpu time spent up to now is       42.6 secs

     total energy              =    -126.29462952 Ry
     Harris-Foulkes estimate   =    -126.29524821 Ry
     estimated scf accuracy    <       0.00204724 Ry

     iteration #  8     ecut=    30.00 Ry     beta=0.70
     Davidson diagonalization with overlap
     ethr =  5.69E-06,  avg # of iterations =  4.0

     negative rho (up, down):  0.515E-01 0.000E+00

     total cpu time spent up to now is       47.9 secs

     total energy              =    -126.29518199 Ry
     Harris-Foulkes estimate   =    -126.29520707 Ry
     estimated scf accuracy    <       0.00016346 Ry

     iteration #  9     ecut=    30.00 Ry     beta=0.70
     Davidson diagonalization with overlap
     ethr =  4.54E-07,  avg # of iterations =  3.0

     negative rho (up, down):  0.509E-01 0.000E+00

     total cpu time spent up to now is       53.4 secs

     total energy              =    -126.29518783 Ry
     Harris-Foulkes estimate   =    -126.29523400 Ry
     estimated scf accuracy    <       0.00009742 Ry

     iteration # 10     ecut=    30.00 Ry     beta=0.70
     Davidson diagonalization with overlap
     ethr =  2.71E-07,  avg # of iterations =  3.0

     negative rho (up, down):  0.508E-01 0.000E+00

     total cpu time spent up to now is       58.5 secs

     total energy              =    -126.29520146 Ry
     Harris-Foulkes estimate   =    -126.29520344 Ry
     estimated scf accuracy    <       0.00000390 Ry

     iteration # 11     ecut=    30.00 Ry     beta=0.70
     Davidson diagonalization with overlap
     ethr =  1.08E-08,  avg # of iterations =  5.0

     negative rho (up, down):  0.509E-01 0.000E+00

     total cpu time spent up to now is       64.0 secs

     total energy              =    -126.29520328 Ry
     Harris-Foulkes estimate   =    -126.29520443 Ry
     estimated scf accuracy    <       0.00000283 Ry

     iteration # 12     ecut=    30.00 Ry     beta=0.70
     Davidson diagonalization with overlap
     ethr =  7.87E-09,  avg # of iterations =  4.0

     negative rho (up, down):  0.509E-01 0.000E+00

     total cpu time spent up to now is       69.1 secs

     total energy              =    -126.29520373 Ry
     Harris-Foulkes estimate   =    -126.29520375 Ry
     estimated scf accuracy    <       0.00000003 Ry

     iteration # 13     ecut=    30.00 Ry     beta=0.70
     Davidson diagonalization with overlap
     ethr =  7.56E-11,  avg # of iterations =  4.0

     negative rho (up, down):  0.509E-01 0.000E+00

     total cpu time spent up to now is       74.0 secs

     End of self-consistent calculation

          k = 0.0000 0.0000 0.0000 ( 37387 PWs)   bands (ev):

   -26.7033 -25.0444 -21.8021 -19.7892 -17.2095 -15.9586 -15.2158 -13.6328
   -12.3353 -10.5470  -9.9480  -9.7777  -9.3745  -8.3541  -8.2297  -5.0733
    -4.6736  -3.8955

!    total energy              =    -126.29520375 Ry
     Harris-Foulkes estimate   =    -126.29520375 Ry
     estimated scf accuracy    <          8.8E-09 Ry

     convergence has been achieved in  13 iterations

     Forces acting on atoms (Ry/au):

     atom    1 type  6   force =    -0.07724948    0.04638376   -0.12240984
     atom    2 type  1   force =     0.05746610    0.06677137    0.22726357
     atom    3 type  6   force =    -0.00752238   -0.08307820   -0.10317874
     atom    4 type  2   force =     0.11608869    0.00909996    0.04925581
     atom    5 type  7   force =    -0.03587628   -0.04830200    0.02111932
     atom    6 type  3   force =     0.00444504   -0.03621341   -0.02533250
     atom    7 type  3   force =     0.01095762    0.05345050    0.00270983
     atom    8 type  3   force =    -0.05636172    0.00529651   -0.03325699
     atom    9 type  4   force =    -0.01314733   -0.00607920   -0.00963350
     atom   10 type  2   force =    -0.00938756   -0.01009849    0.00143020
     atom   11 type  5   force =     0.00526647    0.00204410    0.00106921
     atom   12 type  5   force =     0.00948116   -0.00307371   -0.00083006
     atom   13 type  5   force =    -0.00415041    0.00382423   -0.00812459

     Total force =     0.360780     Total SCF correction =     0.000141

     Molecular Dynamics Calculation
     mass C1               =    12.01
     mass C2               =    12.01
     mass H1               =     1.01
     mass H2               =     1.01
     mass H3               =     1.01
     mass O                =    16.00
     mass N                =    14.01
     Time step             =    20.00 a.u.,  0.9676 femto-seconds

     Entering Dynamics:    iteration =     1
                           time      =   0.0010 pico-seconds


ATOMIC_POSITIONS (angstrom)
O        6.741344258   9.829644296   8.293524120
C1       7.415835887   8.995482373   8.876424263
O        7.862855227   9.239126080  10.101710997
C2       7.742962631   7.691133925   8.206505042
N        7.125406008   7.657458925   6.869769133
H1       7.419721278   6.818444480   6.386808930
H1       7.181492906   8.452342377   6.245712017
H1       6.175343632   7.560677390   7.205785753
H2       7.365830693   6.853461345   8.809056504
C2       9.266199268   7.549816721   8.070013480
H3       9.669241904   8.414891923   7.526116123
H3       9.501113423   6.626037668   7.517928633
H3       9.717870709   7.503224289   9.072968926


     kinetic energy (Ekin) =     0.00000000 Ry
     temperature           =     0.00000000 K 
     Ekin + Etot (const)   =  -126.29520375 Ry

     Linear momentum :    0.0000000000    0.0000000000    0.0000000000

     Writing output data file alanine.save
     Check: negative starting charge=   -0.029512
     NEW-OLD atomic charge density approx. for the potential
     Check: negative starting charge=   -0.029487

     negative rho (up, down):  0.509E-01 0.000E+00

     total cpu time spent up to now is       80.7 secs

     Self-consistent Calculation

     iteration #  1     ecut=    30.00 Ry     beta=0.70
     Davidson diagonalization with overlap
     ethr =  1.00E-06,  avg # of iterations =  3.0

     negative rho (up, down):  0.508E-01 0.000E+00

     total cpu time spent up to now is       86.6 secs

     total energy              =    -126.29942987 Ry
     Harris-Foulkes estimate   =    -126.29947832 Ry
     estimated scf accuracy    <       0.00008694 Ry

     iteration #  2     ecut=    30.00 Ry     beta=0.70
     Davidson diagonalization with overlap
     ethr =  2.42E-07,  avg # of iterations =  3.0

     negative rho (up, down):  0.509E-01 0.000E+00

     total cpu time spent up to now is       91.8 secs

     total energy              =    -126.29944767 Ry
     Harris-Foulkes estimate   =    -126.29946965 Ry
     estimated scf accuracy    <       0.00004055 Ry

     iteration #  3     ecut=    30.00 Ry     beta=0.70
     Davidson diagonalization with overlap
     ethr =  1.13E-07,  avg # of iterations =  3.0

     negative rho (up, down):  0.508E-01 0.000E+00

     total cpu time spent up to now is       97.0 secs

     total energy              =    -126.29945762 Ry
     Harris-Foulkes estimate   =    -126.29945806 Ry
     estimated scf accuracy    <       0.00000147 Ry

     iteration #  4     ecut=    30.00 Ry     beta=0.70
     Davidson diagonalization with overlap
     ethr =  4.10E-09,  avg # of iterations =  2.0

     negative rho (up, down):  0.508E-01 0.000E+00

     total cpu time spent up to now is      102.1 secs

     total energy              =    -126.29945790 Ry
     Harris-Foulkes estimate   =    -126.29945796 Ry
     estimated scf accuracy    <       0.00000013 Ry

     iteration #  5     ecut=    30.00 Ry     beta=0.70
     Davidson diagonalization with overlap
     ethr =  3.53E-10,  avg # of iterations =  4.0

     negative rho (up, down):  0.508E-01 0.000E+00

     total cpu time spent up to now is      107.6 secs

     total energy              =    -126.29945793 Ry
     Harris-Foulkes estimate   =    -126.29945797 Ry
     estimated scf accuracy    <       0.00000009 Ry

     iteration #  6     ecut=    30.00 Ry     beta=0.70
     Davidson diagonalization with overlap
     ethr =  2.57E-10,  avg # of iterations =  4.0

     negative rho (up, down):  0.508E-01 0.000E+00

     total cpu time spent up to now is      112.8 secs

     total energy              =    -126.29945795 Ry
     Harris-Foulkes estimate   =    -126.29945796 Ry
     estimated scf accuracy    <       0.00000002 Ry

     iteration #  7     ecut=    30.00 Ry     beta=0.70
     Davidson diagonalization with overlap
     ethr =  5.37E-11,  avg # of iterations =  4.0

     negative rho (up, down):  0.508E-01 0.000E+00

     total cpu time spent up to now is      117.0 secs

     End of self-consistent calculation

          k = 0.0000 0.0000 0.0000 ( 37387 PWs)   bands (ev):

   -26.6371 -25.0180 -21.8422 -19.7745 -17.1657 -15.9011 -15.1811 -13.6094
   -12.3162 -10.5451  -9.9486  -9.7711  -9.3664  -8.3592  -8.2269  -5.0701
    -4.6933  -3.9176

!    total energy              =    -126.29945795 Ry
     Harris-Foulkes estimate   =    -126.29945796 Ry
     estimated scf accuracy    <          2.7E-09 Ry

     convergence has been achieved in   7 iterations

     Forces acting on atoms (Ry/au):

     atom    1 type  6   force =    -0.07400182    0.04290616   -0.11902333
     atom    2 type  1   force =     0.05375797    0.06786974    0.21984775
     atom    3 type  6   force =    -0.00678001   -0.08166651   -0.09999784
     atom    4 type  2   force =     0.11208347    0.00828854    0.04811972
     atom    5 type  7   force =    -0.03755728   -0.04971000    0.01404100
     atom    6 type  3   force =     0.00157950   -0.02693048   -0.02036837
     atom    7 type  3   force =     0.01051045    0.04613190    0.00752833
     atom    8 type  3   force =    -0.04915291    0.00597267   -0.03418837
     atom    9 type  4   force =    -0.01233529   -0.00545053   -0.00949443
     atom   10 type  2   force =    -0.00866587   -0.01017432   -0.00017919
     atom   11 type  5   force =     0.00495417    0.00163574    0.00118682
     atom   12 type  5   force =     0.00920815   -0.00247404   -0.00046257
     atom   13 type  5   force =    -0.00359541    0.00362078   -0.00694867

     Total force =     0.347501     Total SCF correction =     0.000086

     Entering Dynamics:    iteration =     2
                           time      =   0.0019 pico-seconds


ATOMIC_POSITIONS (angstrom)
O        6.739764924   9.830676873   8.291316665
C1       7.417993472   8.997614868   8.884136617
O        7.862867110   9.237100246  10.100057552
C2       7.746689133   7.691401467   8.208713938
N        7.124669347   7.656364613   6.871053233
H1       7.421266806   6.805796274   6.378193905
H1       7.185170818   8.467731930   6.247063370
H1       6.158476918   7.561836882   7.193764991
H2       7.361585476   6.851598320   8.806227420
C2       9.266206263   7.549513570   8.070751769
H3       9.671549659   8.415499885   7.527506032
H3       9.504793432   6.625027078   7.518435555
H3       9.717212639   7.504865686   9.071067615


     kinetic energy (Ekin) =     0.00417729 Ry
     temperature           =    36.64118542 K 
     Ekin + Etot (const)   =  -126.29528066 Ry
     Message from routine dynamics:
     Total linear momentum <> 0

     Linear momentum :    0.0354787710   -0.0039193590    0.0889216372

     Writing output data file alanine.save
     Check: negative starting charge=   -0.029487
     NEW-OLD atomic charge density approx. for the potential
     Check: negative starting charge=   -0.029413

     negative rho (up, down):  0.509E-01 0.000E+00

     total cpu time spent up to now is      123.7 secs

     Self-consistent Calculation

     iteration #  1     ecut=    30.00 Ry     beta=0.70
     Davidson diagonalization with overlap
     ethr =  1.00E-06,  avg # of iterations =  4.0

     negative rho (up, down):  0.507E-01 0.000E+00

     total cpu time spent up to now is      130.2 secs

     total energy              =    -126.30962785 Ry
     Harris-Foulkes estimate   =    -126.30994878 Ry
     estimated scf accuracy    <       0.00059287 Ry

     iteration #  2     ecut=    30.00 Ry     beta=0.70
     Davidson diagonalization with overlap
     ethr =  1.65E-06,  avg # of iterations =  3.0

     negative rho (up, down):  0.507E-01 0.000E+00

     total cpu time spent up to now is      135.5 secs

     total energy              =    -126.30973355 Ry
     Harris-Foulkes estimate   =    -126.30988302 Ry
     estimated scf accuracy    <       0.00027743 Ry

     iteration #  3     ecut=    30.00 Ry     beta=0.70
     Davidson diagonalization with overlap
     ethr =  7.71E-07,  avg # of iterations =  3.0

     negative rho (up, down):  0.507E-01 0.000E+00

     total cpu time spent up to now is      140.7 secs

     total energy              =    -126.30980187 Ry
     Harris-Foulkes estimate   =    -126.30980620 Ry
     estimated scf accuracy    <       0.00001257 Ry

     iteration #  4     ecut=    30.00 Ry     beta=0.70
     Davidson diagonalization with overlap
     ethr =  3.49E-08,  avg # of iterations =  3.0

     negative rho (up, down):  0.507E-01 0.000E+00

     total cpu time spent up to now is      145.9 secs

     total energy              =    -126.30980447 Ry
     Harris-Foulkes estimate   =    -126.30980536 Ry
     estimated scf accuracy    <       0.00000179 Ry

     iteration #  5     ecut=    30.00 Ry     beta=0.70
     Davidson diagonalization with overlap
     ethr =  4.96E-09,  avg # of iterations =  4.0

     negative rho (up, down):  0.507E-01 0.000E+00

     total cpu time spent up to now is      151.2 secs

     total energy              =    -126.30980482 Ry
     Harris-Foulkes estimate   =    -126.30980530 Ry
     estimated scf accuracy    <       0.00000119 Ry

     iteration #  6     ecut=    30.00 Ry     beta=0.70
     Davidson diagonalization with overlap
     ethr =  3.30E-09,  avg # of iterations =  4.0

     negative rho (up, down):  0.507E-01 0.000E+00

     total cpu time spent up to now is      156.6 secs

     total energy              =    -126.30980507 Ry
     Harris-Foulkes estimate   =    -126.30980512 Ry
     estimated scf accuracy    <       0.00000015 Ry

     iteration #  7     ecut=    30.00 Ry     beta=0.70
     Davidson diagonalization with overlap
     ethr =  4.20E-10,  avg # of iterations =  4.0

     negative rho (up, down):  0.507E-01 0.000E+00

     total cpu time spent up to now is      161.9 secs

     total energy              =    -126.30980509 Ry
     Harris-Foulkes estimate   =    -126.30980510 Ry
     estimated scf accuracy    <       0.00000003 Ry

     iteration #  8     ecut=    30.00 Ry     beta=0.70
     Davidson diagonalization with overlap
     ethr =  8.84E-11,  avg # of iterations =  3.0

     negative rho (up, down):  0.507E-01 0.000E+00

     total cpu time spent up to now is      166.3 secs

     End of self-consistent calculation

          k = 0.0000 0.0000 0.0000 ( 37387 PWs)   bands (ev):

   -26.4629 -24.9472 -21.9589 -19.7367 -17.0500 -15.7505 -15.0858 -13.5438
   -12.2632 -10.5412  -9.9513  -9.7528  -9.3446  -8.3777  -8.2205  -5.0600
    -4.7503  -3.9830

!    total energy              =    -126.30980509 Ry
     Harris-Foulkes estimate   =    -126.30980510 Ry
     estimated scf accuracy    <          3.9E-09 Ry

     convergence has been achieved in   8 iterations

     Forces acting on atoms (Ry/au):

     atom    1 type  6   force =    -0.06479402    0.03319599   -0.10926029
     atom    2 type  1   force =     0.04295226    0.07050092    0.19758031
     atom    3 type  6   force =    -0.00432641   -0.07734166   -0.08989540
     atom    4 type  2   force =     0.10049940    0.00607015    0.04494206
     atom    5 type  7   force =    -0.04183244   -0.05198307   -0.00276538
     atom    6 type  3   force =    -0.00500169   -0.00476742   -0.00846066
     atom    7 type  3   force =     0.00936848    0.02817576    0.01884425
     atom    8 type  3   force =    -0.03079130    0.00758528   -0.03562441
     atom    9 type  4   force =    -0.01001890   -0.00374161   -0.00901186
     atom   10 type  2   force =    -0.00648005   -0.01037235   -0.00452026
     atom   11 type  5   force =     0.00408432    0.00055119    0.00146632
     atom   12 type  5   force =     0.00844075   -0.00088215    0.00052333
     atom   13 type  5   force =    -0.00210229    0.00304581   -0.00376395

     Total force =     0.312898     Total SCF correction =     0.000129

     Entering Dynamics:    iteration =     3
                           time      =   0.0029 pico-seconds


ATOMIC_POSITIONS (angstrom)
O        6.737394358   9.832225954   8.288310607
C1       7.421876321   9.001304559   8.897715729
O        7.863125012   9.233528111  10.098093530
C2       7.753065828   7.691743115   8.213160814
N        7.123571252   7.654531362   6.873760644
H1       7.422627648   6.788837005   6.366419766
H1       7.191014988   8.487194256   6.252008915
H1       6.136232241   7.563447525   7.173172158
H2       7.355280721   6.848958062   8.802191766
C2       9.266547877   7.548926174   8.072658115
H3       9.675689587   8.416143189   7.530894978
H3       9.511170636   6.623631027   7.520305239
H3       9.717119035   7.507679517   9.069453369


     kinetic energy (Ekin) =     0.01532112 Ry
     temperature           =   134.38946810 K 
     Ekin + Etot (const)   =  -126.29448398 Ry
     Message from routine dynamics:
     Total linear momentum <> 0

     Linear momentum :    0.0963682168   -0.0188273087    0.2436858928

     Writing output data file alanine.save
     Check: negative starting charge=   -0.029413
     NEW-OLD atomic charge density approx. for the potential
     Check: negative starting charge=   -0.029308

     negative rho (up, down):  0.509E-01 0.000E+00

     total cpu time spent up to now is      173.0 secs

     Self-consistent Calculation

     iteration #  1     ecut=    30.00 Ry     beta=0.70
     Davidson diagonalization with overlap
     ethr =  1.00E-06,  avg # of iterations =  6.0

     negative rho (up, down):  0.505E-01 0.000E+00

     total cpu time spent up to now is      179.6 secs

     total energy              =    -126.32155514 Ry
     Harris-Foulkes estimate   =    -126.32205211 Ry
     estimated scf accuracy    <       0.00098513 Ry

     iteration #  2     ecut=    30.00 Ry     beta=0.70
     Davidson diagonalization with overlap
     ethr =  2.74E-06,  avg # of iterations =  3.0

     negative rho (up, down):  0.506E-01 0.000E+00

     total cpu time spent up to now is      184.9 secs

     total energy              =    -126.32170007 Ry
     Harris-Foulkes estimate   =    -126.32194210 Ry
     estimated scf accuracy    <       0.00044818 Ry

     iteration #  3     ecut=    30.00 Ry     beta=0.70
     Davidson diagonalization with overlap
     ethr =  1.24E-06,  avg # of iterations =  4.0

     negative rho (up, down):  0.506E-01 0.000E+00

     total cpu time spent up to now is      190.3 secs

     total energy              =    -126.32180483 Ry
     Harris-Foulkes estimate   =    -126.32183543 Ry
     estimated scf accuracy    <       0.00006412 Ry

     iteration #  4     ecut=    30.00 Ry     beta=0.70
     Davidson diagonalization with overlap
     ethr =  1.78E-07,  avg # of iterations =  4.0

     negative rho (up, down):  0.506E-01 0.000E+00

     total cpu time spent up to now is      195.4 secs

     total energy              =    -126.32181515 Ry
     Harris-Foulkes estimate   =    -126.32183414 Ry
     estimated scf accuracy    <       0.00005254 Ry

     iteration #  5     ecut=    30.00 Ry     beta=0.70
     Davidson diagonalization with overlap
     ethr =  1.46E-07,  avg # of iterations =  4.0

     negative rho (up, down):  0.506E-01 0.000E+00

     total cpu time spent up to now is      200.6 secs

     total energy              =    -126.32182458 Ry
     Harris-Foulkes estimate   =    -126.32182474 Ry
     estimated scf accuracy    <       0.00000056 Ry

     iteration #  6     ecut=    30.00 Ry     beta=0.70
     Davidson diagonalization with overlap
     ethr =  1.55E-09,  avg # of iterations =  4.0

     negative rho (up, down):  0.506E-01 0.000E+00

     total cpu time spent up to now is      206.3 secs

     total energy              =    -126.32182488 Ry
     Harris-Foulkes estimate   =    -126.32182499 Ry
     estimated scf accuracy    <       0.00000024 Ry

     iteration #  7     ecut=    30.00 Ry     beta=0.70
     Davidson diagonalization with overlap
     ethr =  6.69E-10,  avg # of iterations =  3.0

     negative rho (up, down):  0.506E-01 0.000E+00

     total cpu time spent up to now is      211.7 secs

     total energy              =    -126.32182493 Ry
     Harris-Foulkes estimate   =    -126.32182494 Ry
     estimated scf accuracy    <       0.00000004 Ry

     iteration #  8     ecut=    30.00 Ry     beta=0.70
     Davidson diagonalization with overlap
     ethr =  1.08E-10,  avg # of iterations =  3.0

     negative rho (up, down):  0.506E-01 0.000E+00

     total cpu time spent up to now is      216.1 secs

     End of self-consistent calculation

          k = 0.0000 0.0000 0.0000 ( 37387 PWs)   bands (ev):

   -26.2361 -24.8563 -22.1371 -19.6913 -16.8982 -15.5576 -14.9541 -13.4477
   -12.1872 -10.5399  -9.9579  -9.7264  -9.3153  -8.4144  -8.2174  -5.0397
    -4.8355  -4.0861

!    total energy              =    -126.32182494 Ry
     Harris-Foulkes estimate   =    -126.32182494 Ry
     estimated scf accuracy    <          1.8E-09 Ry

     convergence has been achieved in   8 iterations

     Forces acting on atoms (Ry/au):

     atom    1 type  6   force =    -0.05104342    0.01912194   -0.09426138
     atom    2 type  1   force =     0.02587521    0.07289573    0.16041578
     atom    3 type  6   force =     0.00046072   -0.06998838   -0.07141142
     atom    4 type  2   force =     0.08252298    0.00298992    0.04032018
     atom    5 type  7   force =    -0.04643494   -0.05181197   -0.02076861
     atom    6 type  3   force =    -0.01142031    0.01916445    0.00453079
     atom    7 type  3   force =     0.00800070    0.00792221    0.03028424
     atom    8 type  3   force =    -0.00865480    0.00922644   -0.03483436
     atom    9 type  4   force =    -0.00651680   -0.00139729   -0.00800281
     atom   10 type  2   force =    -0.00276064   -0.01059832   -0.01019117
     atom   11 type  5   force =     0.00283731   -0.00082738    0.00172074
     atom   12 type  5   force =     0.00732255    0.00114441    0.00181113
     atom   13 type  5   force =    -0.00014815    0.00219658    0.00046210

     Total force =     0.265764     Total SCF correction =     0.000067

     Entering Dynamics:    iteration =     4
                           time      =   0.0039 pico-seconds


ATOMIC_POSITIONS (angstrom)
O        6.734342104   9.833898809   8.284433774
C1       7.426773808   9.006373617   8.915663118
O        7.863543712   9.228501889  10.095728223
C2       7.761429404   7.691944659   8.219247984
N        7.121861101   7.651754558   6.877029585
H1       7.421734146   6.774574605   6.355114900
H1       7.198539962   8.506117080   6.263661483
H1       6.113632308   7.566186719   7.144128299
H2       7.347643230   6.845927749   8.796848031
C2       9.267091729   7.547913439   8.075147494
H3       9.680998843   8.416333049   7.535748790
H3       9.519661366   6.622257516   7.523401340
H3       9.717674112   7.511125181   9.068753434


     kinetic energy (Ekin) =     0.02873803 Ry
     temperature           =   252.07619033 K 
     Ekin + Etot (const)   =  -126.29308690 Ry
     Message from routine dynamics:
     Total linear momentum <> 0

     Linear momentum :    0.1297492351   -0.0498336138    0.3408802703

     Writing output data file alanine.save
     Check: negative starting charge=   -0.029308
     NEW-OLD atomic charge density approx. for the potential
     Check: negative starting charge=   -0.029218

     negative rho (up, down):  0.509E-01 0.000E+00

     total cpu time spent up to now is      222.7 secs

     Self-consistent Calculation

     iteration #  1     ecut=    30.00 Ry     beta=0.70
     Davidson diagonalization with overlap
     ethr =  1.00E-06,  avg # of iterations =  7.0

     negative rho (up, down):  0.504E-01 0.000E+00

     total cpu time spent up to now is      229.6 secs

     total energy              =    -126.33257714 Ry
     Harris-Foulkes estimate   =    -126.33301269 Ry
     estimated scf accuracy    <       0.00100011 Ry

     iteration #  2     ecut=    30.00 Ry     beta=0.70
     Davidson diagonalization with overlap
     ethr =  2.78E-06,  avg # of iterations =  3.0

     negative rho (up, down):  0.505E-01 0.000E+00

     total cpu time spent up to now is      234.9 secs

     total energy              =    -126.33267947 Ry
     Harris-Foulkes estimate   =    -126.33287281 Ry
     estimated scf accuracy    <       0.00034931 Ry

     iteration #  3     ecut=    30.00 Ry     beta=0.70
     Davidson diagonalization with overlap
     ethr =  9.70E-07,  avg # of iterations =  4.0

     negative rho (up, down):  0.505E-01 0.000E+00

     total cpu time spent up to now is      240.5 secs

     total energy              =    -126.33275445 Ry
     Harris-Foulkes estimate   =    -126.33282470 Ry
     estimated scf accuracy    <       0.00015658 Ry

     iteration #  4     ecut=    30.00 Ry     beta=0.70
     Davidson diagonalization with overlap
     ethr =  4.35E-07,  avg # of iterations =  4.0

     negative rho (up, down):  0.505E-01 0.000E+00

     total cpu time spent up to now is      245.8 secs

     total energy              =    -126.33278568 Ry
     Harris-Foulkes estimate   =    -126.33280624 Ry
     estimated scf accuracy    <       0.00005641 Ry

     iteration #  5     ecut=    30.00 Ry     beta=0.70
     Davidson diagonalization with overlap
     ethr =  1.57E-07,  avg # of iterations =  4.0

     negative rho (up, down):  0.505E-01 0.000E+00

     total cpu time spent up to now is      250.9 secs

     total energy              =    -126.33279584 Ry
     Harris-Foulkes estimate   =    -126.33279608 Ry
     estimated scf accuracy    <       0.00000077 Ry

     iteration #  6     ecut=    30.00 Ry     beta=0.70
     Davidson diagonalization with overlap
     ethr =  2.14E-09,  avg # of iterations =  4.0

     negative rho (up, down):  0.505E-01 0.000E+00

     total cpu time spent up to now is      256.6 secs

     total energy              =    -126.33279621 Ry
     Harris-Foulkes estimate   =    -126.33279630 Ry
     estimated scf accuracy    <       0.00000022 Ry

     iteration #  7     ecut=    30.00 Ry     beta=0.70
     Davidson diagonalization with overlap
     ethr =  6.22E-10,  avg # of iterations =  4.0

     negative rho (up, down):  0.505E-01 0.000E+00

     total cpu time spent up to now is      261.9 secs

     total energy              =    -126.33279625 Ry
     Harris-Foulkes estimate   =    -126.33279627 Ry
     estimated scf accuracy    <       0.00000004 Ry

     iteration #  8     ecut=    30.00 Ry     beta=0.70
     Davidson diagonalization with overlap
     ethr =  1.13E-10,  avg # of iterations =  3.0

     negative rho (up, down):  0.505E-01 0.000E+00

     total cpu time spent up to now is      266.3 secs

     End of self-consistent calculation

          k = 0.0000 0.0000 0.0000 ( 37387 PWs)   bands (ev):

   -26.0137 -24.7865 -22.3422 -19.6527 -16.7433 -15.3750 -14.8182 -13.3356
   -12.1005 -10.5458  -9.9695  -9.6959  -9.2867  -8.4700  -8.2295  -5.0061
    -4.9335  -4.2159

!    total energy              =    -126.33279626 Ry
     Harris-Foulkes estimate   =    -126.33279626 Ry
     estimated scf accuracy    <          2.1E-09 Ry

     convergence has been achieved in   8 iterations

     Forces acting on atoms (Ry/au):

     atom    1 type  6   force =    -0.03469925    0.00318118   -0.07564833
     atom    2 type  1   force =     0.00355909    0.07288163    0.10837161
     atom    3 type  6   force =     0.00842976   -0.05948857   -0.04255752
     atom    4 type  2   force =     0.05982988   -0.00035244    0.03487827
     atom    5 type  7   force =    -0.04850087   -0.04778733   -0.03397056
     atom    6 type  3   force =    -0.01502304    0.03694366    0.01435031
     atom    7 type  3   force =     0.00691186   -0.00780967    0.03701139
     atom    8 type  3   force =     0.01018487    0.01010400   -0.02995493
     atom    9 type  4   force =    -0.00228123    0.00099263   -0.00622960
     atom   10 type  2   force =     0.00253978   -0.01071406   -0.01527118
     atom   11 type  5   force =     0.00146027   -0.00202230    0.00172268
     atom   12 type  5   force =     0.00604788    0.00289369    0.00299474
     atom   13 type  5   force =     0.00160858    0.00120364    0.00436708

     Total force =     0.211841     Total SCF correction =     0.000100

     Entering Dynamics:    iteration =     5
                           time      =   0.0048 pico-seconds


ATOMIC_POSITIONS (angstrom)
O        6.730571381   9.835326874   8.279446920
C1       7.431933138   9.012699567   8.936376310
O        7.863955135   9.222061065  10.092875608
C2       7.771022698   7.691812661   8.226333137
N        7.119209606   7.647981178   6.880096185
H1       7.417337762   6.767345197   6.346162485
H1       7.207101598   8.520341871   6.283174809
H1       6.095153614   7.570150828   7.107149996
H2       7.339423023   6.842970637   8.790084813
C2       9.267655973   7.546348710   8.077580864
H3       9.686846611   8.415636853   7.541538564
H3       9.529661446   6.621222876   7.527489169
H3       9.719025427   7.514823748   9.069410937


     kinetic energy (Ekin) =     0.04114561 Ry
     temperature           =   360.90942845 K 
     Ekin + Etot (const)   =  -126.29165065 Ry
     Message from routine dynamics:
     Total linear momentum <> 0

     Linear momentum :    0.1258899035   -0.0967423597    0.3700485639

     Writing output data file alanine.save
     Check: negative starting charge=   -0.029218
     NEW-OLD atomic charge density approx. for the potential
     Check: negative starting charge=   -0.029188

     negative rho (up, down):  0.510E-01 0.000E+00

     total cpu time spent up to now is      272.9 secs

     Self-consistent Calculation

     iteration #  1     ecut=    30.00 Ry     beta=0.70
     Davidson diagonalization with overlap
     ethr =  1.00E-06,  avg # of iterations =  7.0

     negative rho (up, down):  0.503E-01 0.000E+00

     total cpu time spent up to now is      280.0 secs

     total energy              =    -126.34150285 Ry
     Harris-Foulkes estimate   =    -126.34183903 Ry
     estimated scf accuracy    <       0.00092563 Ry

     iteration #  2     ecut=    30.00 Ry     beta=0.70
     Davidson diagonalization with overlap
     ethr =  2.57E-06,  avg # of iterations =  4.0

     negative rho (up, down):  0.505E-01 0.000E+00

     total cpu time spent up to now is      285.2 secs

     total energy              =    -126.34158364 Ry
     Harris-Foulkes estimate   =    -126.34166651 Ry
     estimated scf accuracy    <       0.00015689 Ry

     iteration #  3     ecut=    30.00 Ry     beta=0.70
     Davidson diagonalization with overlap
     ethr =  4.36E-07,  avg # of iterations =  4.0

     negative rho (up, down):  0.505E-01 0.000E+00

     total cpu time spent up to now is      290.8 secs

     total energy              =    -126.34159450 Ry
     Harris-Foulkes estimate   =    -126.34170351 Ry
     estimated scf accuracy    <       0.00027734 Ry

     iteration #  4     ecut=    30.00 Ry     beta=0.70
     Davidson diagonalization with overlap
     ethr =  4.36E-07,  avg # of iterations =  4.0

     negative rho (up, down):  0.505E-01 0.000E+00

     total cpu time spent up to now is      296.2 secs

     total energy              =    -126.34164905 Ry
     Harris-Foulkes estimate   =    -126.34165426 Ry
     estimated scf accuracy    <       0.00001493 Ry

     iteration #  5     ecut=    30.00 Ry     beta=0.70
     Davidson diagonalization with overlap
     ethr =  4.15E-08,  avg # of iterations =  3.0

     negative rho (up, down):  0.505E-01 0.000E+00

     total cpu time spent up to now is      301.2 secs

     total energy              =    -126.34165190 Ry
     Harris-Foulkes estimate   =    -126.34165220 Ry
     estimated scf accuracy    <       0.00000078 Ry

     iteration #  6     ecut=    30.00 Ry     beta=0.70
     Davidson diagonalization with overlap
     ethr =  2.18E-09,  avg # of iterations =  3.0

     negative rho (up, down):  0.505E-01 0.000E+00

     total cpu time spent up to now is      306.6 secs

     total energy              =    -126.34165212 Ry
     Harris-Foulkes estimate   =    -126.34165215 Ry
     estimated scf accuracy    <       0.00000006 Ry

     iteration #  7     ecut=    30.00 Ry     beta=0.70
     Davidson diagonalization with overlap
     ethr =  1.70E-10,  avg # of iterations =  3.0

     negative rho (up, down):  0.505E-01 0.000E+00

     total cpu time spent up to now is      311.3 secs

     End of self-consistent calculation

          k = 0.0000 0.0000 0.0000 ( 37387 PWs)   bands (ev):

   -25.8373 -24.7906 -22.5206 -19.6298 -16.6047 -15.2408 -14.7081 -13.2222
   -12.0134 -10.5624  -9.9866  -9.6650  -9.2671  -8.5413  -8.2706  -5.0263
    -4.9585  -4.3570

!    total energy              =    -126.34165213 Ry
     Harris-Foulkes estimate   =    -126.34165214 Ry
     estimated scf accuracy    <          8.6E-09 Ry

     convergence has been achieved in   7 iterations

     Forces acting on atoms (Ry/au):

     atom    1 type  6   force =    -0.01772756   -0.01228483   -0.05515316
     atom    2 type  1   force =    -0.02304093    0.06875441    0.04185798
     atom    3 type  6   force =     0.02050746   -0.04582323   -0.00138606
     atom    4 type  2   force =     0.03434957   -0.00354373    0.02904988
     atom    5 type  7   force =    -0.04590047   -0.04041269   -0.04006492
     atom    6 type  3   force =    -0.01488307    0.04547770    0.01919853
     atom    7 type  3   force =     0.00652550   -0.01559255    0.03710066
     atom    8 type  3   force =     0.02116067    0.00985951   -0.02079371
     atom    9 type  4   force =     0.00217255    0.00284405   -0.00349064
     atom   10 type  2   force =     0.00935708   -0.01056102   -0.01793274
     atom   11 type  5   force =     0.00020025   -0.00262696    0.00129431
     atom   12 type  5   force =     0.00480926    0.00375020    0.00371860
     atom   13 type  5   force =     0.00253792    0.00018852    0.00661638

     Total force =     0.162402     Total SCF correction =     0.000207

     Entering Dynamics:    iteration =     6
                           time      =   0.0058 pico-seconds


ATOMIC_POSITIONS (angstrom)
O        6.726057627   9.836193360   8.273215396
C1       7.436513665   9.020119451   8.958024778
O        7.864257869   9.214339031  10.089714851
C2       7.781033037   7.691201041   8.233840143
N        7.115372734   7.643262846   6.882401414
H1       7.409138755   6.769213006   6.340255617
H1       7.216234002   8.527772432   6.310105796
H1       6.083312898   7.575213758   7.063884128
H2       7.331428536   6.840464522   8.782103553
C2       9.268093044   7.544154929   8.079442630
H3       9.692632455   8.413811922   7.547701677
H3       9.540578061   6.620667930   7.532295022
H3       9.721119167   7.518433642   9.071538564


     kinetic energy (Ekin) =     0.05121468 Ry
     temperature           =   449.23046453 K 
     Ekin + Etot (const)   =  -126.29043746 Ry
     Message from routine dynamics:
     Total linear momentum <> 0

     Linear momentum :    0.0850840368   -0.1538044528    0.3406105252

     Writing output data file alanine.save
     Check: negative starting charge=   -0.029188
     NEW-OLD atomic charge density approx. for the potential
     Check: negative starting charge=   -0.029211

     negative rho (up, down):  0.513E-01 0.000E+00

     total cpu time spent up to now is      317.9 secs

     Self-consistent Calculation

     iteration #  1     ecut=    30.00 Ry     beta=0.70
     Davidson diagonalization with overlap
     ethr =  1.00E-06,  avg # of iterations =  7.0

     negative rho (up, down):  0.504E-01 0.000E+00

     total cpu time spent up to now is      324.8 secs

     total energy              =    -126.34710875 Ry
     Harris-Foulkes estimate   =    -126.34748645 Ry
     estimated scf accuracy    <       0.00104307 Ry

     iteration #  2     ecut=    30.00 Ry     beta=0.70
     Davidson diagonalization with overlap
     ethr =  2.90E-06,  avg # of iterations =  4.0

     negative rho (up, down):  0.506E-01 0.000E+00

     total cpu time spent up to now is      329.9 secs

     total energy              =    -126.34721193 Ry
     Harris-Foulkes estimate   =    -126.34729885 Ry
     estimated scf accuracy    <       0.00016793 Ry

     iteration #  3     ecut=    30.00 Ry     beta=0.70
     Davidson diagonalization with overlap
     ethr =  4.66E-07,  avg # of iterations =  4.0

     negative rho (up, down):  0.506E-01 0.000E+00

     total cpu time spent up to now is      335.5 secs

     total energy              =    -126.34722530 Ry
     Harris-Foulkes estimate   =    -126.34733111 Ry
     estimated scf accuracy    <       0.00025778 Ry

     iteration #  4     ecut=    30.00 Ry     beta=0.70
     Davidson diagonalization with overlap
     ethr =  4.66E-07,  avg # of iterations =  4.0

     negative rho (up, down):  0.507E-01 0.000E+00

     total cpu time spent up to now is      340.8 secs

     total energy              =    -126.34727636 Ry
     Harris-Foulkes estimate   =    -126.34728522 Ry
     estimated scf accuracy    <       0.00002296 Ry

     iteration #  5     ecut=    30.00 Ry     beta=0.70
     Davidson diagonalization with overlap
     ethr =  6.38E-08,  avg # of iterations =  3.0

     negative rho (up, down):  0.507E-01 0.000E+00

     total cpu time spent up to now is      346.1 secs

     total energy              =    -126.34728136 Ry
     Harris-Foulkes estimate   =    -126.34728213 Ry
     estimated scf accuracy    <       0.00000195 Ry

     iteration #  6     ecut=    30.00 Ry     beta=0.70
     Davidson diagonalization with overlap
     ethr =  5.41E-09,  avg # of iterations =  3.0

     negative rho (up, down):  0.507E-01 0.000E+00

     total cpu time spent up to now is      351.4 secs

     total energy              =    -126.34728179 Ry
     Harris-Foulkes estimate   =    -126.34728193 Ry
     estimated scf accuracy    <       0.00000028 Ry

     iteration #  7     ecut=    30.00 Ry     beta=0.70
     Davidson diagonalization with overlap
     ethr =  7.82E-10,  avg # of iterations =  3.0

     negative rho (up, down):  0.507E-01 0.000E+00

     total cpu time spent up to now is      356.7 secs

     total energy              =    -126.34728186 Ry
     Harris-Foulkes estimate   =    -126.34728187 Ry
     estimated scf accuracy    <       0.00000002 Ry

     iteration #  8     ecut=    30.00 Ry     beta=0.70
     Davidson diagonalization with overlap
     ethr =  6.03E-11,  avg # of iterations =  3.0

     negative rho (up, down):  0.507E-01 0.000E+00

     total cpu time spent up to now is      361.3 secs

     End of self-consistent calculation

          k = 0.0000 0.0000 0.0000 ( 37387 PWs)   bands (ev):

   -25.7323 -24.9076 -22.6202 -19.6244 -16.4889 -15.1736 -14.6407 -13.1181
   -11.9310 -10.5910 -10.0095  -9.6378  -9.2615  -8.6224  -8.3485  -5.0978
    -4.9067  -4.4889

!    total energy              =    -126.34728187 Ry
     Harris-Foulkes estimate   =    -126.34728187 Ry
     estimated scf accuracy    <          1.3E-09 Ry

     convergence has been achieved in   8 iterations

     Forces acting on atoms (Ry/au):

     atom    1 type  6   force =    -0.00163252   -0.02555471   -0.03421590
     atom    2 type  1   force =    -0.05281215    0.05993708   -0.03711210
     atom    3 type  6   force =     0.03702017   -0.02949567    0.05229861
     atom    4 type  2   force =     0.00807610   -0.00635308    0.02307639
     atom    5 type  7   force =    -0.03795121   -0.03069371   -0.03850402
     atom    6 type  3   force =    -0.01092282    0.04417822    0.01852531
     atom    7 type  3   force =     0.00716071   -0.01445539    0.03069189
     atom    8 type  3   force =     0.02221808    0.00856978   -0.00843846
     atom    9 type  4   force =     0.00633282    0.00371232    0.00028932
     atom   10 type  2   force =     0.01734306   -0.00996598   -0.01715909
     atom   11 type  5   force =    -0.00075887   -0.00242706    0.00037130
     atom   12 type  5   force =     0.00374461    0.00336744    0.00377014
     atom   13 type  5   force =     0.00228091   -0.00076402    0.00644735

     Total force =     0.155437     Total SCF correction =     0.000038

     Entering Dynamics:    iteration =     7
                           time      =   0.0068 pico-seconds


ATOMIC_POSITIONS (angstrom)
O        6.720831785   9.836270958   8.265774989
C1       7.439676995   9.028427180   8.978680803
O        7.864490114   9.205565572  10.086785323
C2       7.790699940   7.690026177   8.241353657
N        7.110272322   7.637745230   6.883687892
H1       7.397857241   6.779875396   6.336869142
H1       7.225812192   8.528625004   6.342539445
H1       6.078219064   7.581062434   7.016929393
H2       7.324466356   6.838602092   8.773531065
C2       9.268349851   7.541318515   8.080452367
H3       9.697898824   8.410871456   7.553716492
H3       9.551931103   6.620480476   7.537542465
H3       9.723675086   7.521686081   9.074810927


     kinetic energy (Ekin) =     0.05788853 Ry
     temperature           =   507.77031973 K 
     Ekin + Etot (const)   =  -126.28939333 Ry
     Message from routine dynamics:
     Total linear momentum <> 0

     Linear momentum :    0.0162387698   -0.2139410139    0.2734886755

     Writing output data file alanine.save
     Check: negative starting charge=   -0.029211
     NEW-OLD atomic charge density approx. for the potential
     Check: negative starting charge=   -0.029232

     negative rho (up, down):  0.516E-01 0.000E+00

     total cpu time spent up to now is      368.0 secs

     Self-consistent Calculation

     iteration #  1     ecut=    30.00 Ry     beta=0.70
     Davidson diagonalization with overlap
     ethr =  1.00E-06,  avg # of iterations =  7.0

     negative rho (up, down):  0.506E-01 0.000E+00

     total cpu time spent up to now is      374.8 secs

     total energy              =    -126.34778547 Ry
     Harris-Foulkes estimate   =    -126.34834751 Ry
     estimated scf accuracy    <       0.00135037 Ry

     iteration #  2     ecut=    30.00 Ry     beta=0.70
     Davidson diagonalization with overlap
     ethr =  3.75E-06,  avg # of iterations =  3.0

     negative rho (up, down):  0.507E-01 0.000E+00

     total cpu time spent up to now is      380.2 secs

     total energy              =    -126.34795690 Ry
     Harris-Foulkes estimate   =    -126.34816195 Ry
     estimated scf accuracy    <       0.00037442 Ry

     iteration #  3     ecut=    30.00 Ry     beta=0.70
     Davidson diagonalization with overlap
     ethr =  1.04E-06,  avg # of iterations =  4.0

     negative rho (up, down):  0.508E-01 0.000E+00

     total cpu time spent up to now is      385.7 secs

     total energy              =    -126.34804967 Ry
     Harris-Foulkes estimate   =    -126.34810746 Ry
     estimated scf accuracy    <       0.00012523 Ry

     iteration #  4     ecut=    30.00 Ry     beta=0.70
     Davidson diagonalization with overlap
     ethr =  3.48E-07,  avg # of iterations =  4.0

     negative rho (up, down):  0.508E-01 0.000E+00

     total cpu time spent up to now is      391.1 secs

     total energy              =    -126.34807338 Ry
     Harris-Foulkes estimate   =    -126.34809257 Ry
     estimated scf accuracy    <       0.00005009 Ry

     iteration #  5     ecut=    30.00 Ry     beta=0.70
     Davidson diagonalization with overlap
     ethr =  1.39E-07,  avg # of iterations =  4.0

     negative rho (up, down):  0.508E-01 0.000E+00

     total cpu time spent up to now is      396.3 secs

     total energy              =    -126.34808326 Ry
     Harris-Foulkes estimate   =    -126.34808360 Ry
     estimated scf accuracy    <       0.00000137 Ry

     iteration #  6     ecut=    30.00 Ry     beta=0.70
     Davidson diagonalization with overlap
     ethr =  3.79E-09,  avg # of iterations =  4.0

     negative rho (up, down):  0.508E-01 0.000E+00

     total cpu time spent up to now is      402.1 secs

     total energy              =    -126.34808367 Ry
     Harris-Foulkes estimate   =    -126.34808387 Ry
     estimated scf accuracy    <       0.00000045 Ry

     iteration #  7     ecut=    30.00 Ry     beta=0.70
     Davidson diagonalization with overlap
     ethr =  1.25E-09,  avg # of iterations =  3.0

     negative rho (up, down):  0.508E-01 0.000E+00

     total cpu time spent up to now is      407.4 secs

     total energy              =    -126.34808375 Ry
     Harris-Foulkes estimate   =    -126.34808376 Ry
     estimated scf accuracy    <       0.00000004 Ry

     iteration #  8     ecut=    30.00 Ry     beta=0.70
     Davidson diagonalization with overlap
     ethr =  1.15E-10,  avg # of iterations =  2.0

     negative rho (up, down):  0.508E-01 0.000E+00

     total cpu time spent up to now is      411.9 secs

     End of self-consistent calculation

          k = 0.0000 0.0000 0.0000 ( 37387 PWs)   bands (ev):

   -25.7109 -25.1145 -22.6352 -19.6318 -16.3955 -15.1715 -14.6157 -13.0269
   -11.8548 -10.6298 -10.0384  -9.6188  -9.2682  -8.7080  -8.4580  -5.1448
    -4.8772  -4.5828

!    total energy              =    -126.34808376 Ry
     Harris-Foulkes estimate   =    -126.34808376 Ry
     estimated scf accuracy    <          1.9E-09 Ry

     convergence has been achieved in   8 iterations

     Forces acting on atoms (Ry/au):

     atom    1 type  6   force =     0.01245701   -0.03557457   -0.01418579
     atom    2 type  1   force =    -0.08365277    0.04730499   -0.12271154
     atom    3 type  6   force =     0.05679890   -0.01194023    0.11445641
     atom    4 type  2   force =    -0.01708776   -0.00872780    0.01705971
     atom    5 type  7   force =    -0.02553554   -0.01915201   -0.02934572
     atom    6 type  3   force =    -0.00335560    0.03330841    0.01219073
     atom    7 type  3   force =     0.00895367   -0.00506043    0.01922036
     atom    8 type  3   force =     0.01348156    0.00662352    0.00529334
     atom    9 type  4   force =     0.00976001    0.00339457    0.00497290
     atom   10 type  2   force =     0.02578213   -0.00879925   -0.01313292
     atom   11 type  5   force =    -0.00132839   -0.00145630   -0.00097946
     atom   12 type  5   force =     0.00289082    0.00175579    0.00312876
     atom   13 type  5   force =     0.00092521   -0.00161137    0.00402479

     Total force =     0.219121     Total SCF correction =     0.000045

     Entering Dynamics:    iteration =     8
                           time      =   0.0077 pico-seconds


ATOMIC_POSITIONS (angstrom)
O        6.715001471   9.835436468   8.257354481
C1       7.440666767   9.037390753   8.996476191
O        7.864850857   9.196044562  10.084970044
C2       7.799392199   7.688266812   8.248663156
N        7.104018696   7.631656408   6.884040265
H1       7.385210513   6.796756160   6.334280828
H1       7.236132039   8.525265985   6.377492854
H1       6.077634872   7.587291492   6.969429690
H2       7.319271076   6.837338252   8.765431478
C2       9.268491423   7.537891063   8.080603989
H3       9.702390527   8.407077287   7.559159705
H3       9.563400897   6.620294600   7.542988266
H3       9.726241867   7.524394101   9.078540347


     kinetic energy (Ekin) =     0.05968304 Ry
     temperature           =   523.51084060 K 
     Ekin + Etot (const)   =  -126.28840072 Ry
     Message from routine dynamics:
     Total linear momentum <> 0

     Linear momentum :   -0.0668937992   -0.2701961971    0.1949799815

     Writing output data file alanine.save
     Check: negative starting charge=   -0.029232
     NEW-OLD atomic charge density approx. for the potential
     Check: negative starting charge=   -0.029230

     negative rho (up, down):  0.520E-01 0.000E+00

     total cpu time spent up to now is      418.6 secs

     Self-consistent Calculation

     iteration #  1     ecut=    30.00 Ry     beta=0.70
     Davidson diagonalization with overlap
     ethr =  1.00E-06,  avg # of iterations =  6.0

     negative rho (up, down):  0.507E-01 0.000E+00

     total cpu time spent up to now is      425.5 secs

     total energy              =    -126.34299291 Ry
     Harris-Foulkes estimate   =    -126.34369637 Ry
     estimated scf accuracy    <       0.00155695 Ry

     iteration #  2     ecut=    30.00 Ry     beta=0.70
     Davidson diagonalization with overlap
     ethr =  4.32E-06,  avg # of iterations =  3.0

     negative rho (up, down):  0.508E-01 0.000E+00

     total cpu time spent up to now is      430.7 secs

     total energy              =    -126.34322490 Ry
     Harris-Foulkes estimate   =    -126.34355245 Ry
     estimated scf accuracy    <       0.00060902 Ry

     iteration #  3     ecut=    30.00 Ry     beta=0.70
     Davidson diagonalization with overlap
     ethr =  1.69E-06,  avg # of iterations =  3.0

     negative rho (up, down):  0.509E-01 0.000E+00

     total cpu time spent up to now is      436.1 secs

     total energy              =    -126.34339408 Ry
     Harris-Foulkes estimate   =    -126.34341400 Ry
     estimated scf accuracy    <       0.00005840 Ry

     iteration #  4     ecut=    30.00 Ry     beta=0.70
     Davidson diagonalization with overlap
     ethr =  1.62E-07,  avg # of iterations =  3.0

     negative rho (up, down):  0.510E-01 0.000E+00

     total cpu time spent up to now is      441.3 secs

     total energy              =    -126.34340551 Ry
     Harris-Foulkes estimate   =    -126.34340556 Ry
     estimated scf accuracy    <       0.00000158 Ry

     iteration #  5     ecut=    30.00 Ry     beta=0.70
     Davidson diagonalization with overlap
     ethr =  4.40E-09,  avg # of iterations =  4.0

     negative rho (up, down):  0.510E-01 0.000E+00

     total cpu time spent up to now is      446.8 secs

     total energy              =    -126.34340612 Ry
     Harris-Foulkes estimate   =    -126.34340622 Ry
     estimated scf accuracy    <       0.00000026 Ry

     iteration #  6     ecut=    30.00 Ry     beta=0.70
     Davidson diagonalization with overlap
     ethr =  7.26E-10,  avg # of iterations =  3.0

     negative rho (up, down):  0.510E-01 0.000E+00

     total cpu time spent up to now is      452.2 secs

     total energy              =    -126.34340616 Ry
     Harris-Foulkes estimate   =    -126.34340622 Ry
     estimated scf accuracy    <       0.00000014 Ry

     iteration #  7     ecut=    30.00 Ry     beta=0.70
     Davidson diagonalization with overlap
     ethr =  3.90E-10,  avg # of iterations =  4.0

     negative rho (up, down):  0.510E-01 0.000E+00

     total cpu time spent up to now is      457.5 secs

     total energy              =    -126.34340618 Ry
     Harris-Foulkes estimate   =    -126.34340619 Ry
     estimated scf accuracy    <       0.00000002 Ry

     iteration #  8     ecut=    30.00 Ry     beta=0.70
     Davidson diagonalization with overlap
     ethr =  6.76E-11,  avg # of iterations =  4.0

     negative rho (up, down):  0.510E-01 0.000E+00

     total cpu time spent up to now is      461.9 secs

     End of self-consistent calculation

          k = 0.0000 0.0000 0.0000 ( 37387 PWs)   bands (ev):

   -25.7712 -25.3213 -22.6086 -19.6433 -16.3212 -15.2104 -14.6170 -12.9459
   -11.7839 -10.6743 -10.0724  -9.6102  -9.2784  -8.7923  -8.5756  -5.1761
    -4.9019  -4.6126

!    total energy              =    -126.34340619 Ry
     Harris-Foulkes estimate   =    -126.34340619 Ry
     estimated scf accuracy    <          5.5E-09 Ry

     convergence has been achieved in   8 iterations

     Forces acting on atoms (Ry/au):

     atom    1 type  6   force =     0.02401031   -0.04199061    0.00408297
     atom    2 type  1   force =    -0.11145797    0.03309361   -0.20340227
     atom    3 type  6   force =     0.07623547    0.00444321    0.17488316
     atom    4 type  2   force =    -0.03944106   -0.01060196    0.01111352
     atom    5 type  7   force =    -0.01109218   -0.00576027   -0.01415261
     atom    6 type  3   force =     0.00702499    0.01457509    0.00091471
     atom    7 type  3   force =     0.01157955    0.00975962    0.00548614
     atom    8 type  3   force =    -0.00216889    0.00461241    0.01822755
     atom    9 type  4   force =     0.01213221    0.00196864    0.01020234
     atom   10 type  2   force =     0.03369889   -0.00703550   -0.00711328
     atom   11 type  5   force =    -0.00154108    0.00001660   -0.00257110
     atom   12 type  5   force =     0.00216772   -0.00070790    0.00197057
     atom   13 type  5   force =    -0.00105013   -0.00232909    0.00033423

     Total force =     0.313379     Total SCF correction =     0.000142

     Entering Dynamics:    iteration =     9
                           time      =   0.0087 pico-seconds


ATOMIC_POSITIONS (angstrom)
O        6.708746747   9.833679161   8.248368090
C1       7.438893792   9.046799767   9.009839158
O        7.865648361   9.186120336  10.085345869
C2       7.806645566   7.685968315   8.255769347
N        7.096871418   7.625311157   6.883862360
H1       7.373729833   6.815411357   6.329752469
H1       7.247828025   8.521522890   6.411610041
H1       6.077655747   7.593553398   6.924545789
H2       7.316429876   6.836407891   8.759222707
C2       9.268683664   7.533993194   8.080144402
H3       9.706049515   8.402876819   7.563754632
H3       9.574811356   6.619585099   7.548469239
H3       9.728315335   7.526459261   9.081923350


     kinetic energy (Ekin) =     0.05595201 Ry
     temperature           =   490.78404040 K 
     Ekin + Etot (const)   =  -126.28745418 Ry
     Message from routine dynamics:
     Total linear momentum <> 0

     Linear momentum :   -0.1501826373   -0.3152610433    0.1320108035

     Writing output data file alanine.save
     Check: negative starting charge=   -0.029230
     NEW-OLD atomic charge density approx. for the potential
     Check: negative starting charge=   -0.029238

     negative rho (up, down):  0.522E-01 0.000E+00

     total cpu time spent up to now is      468.5 secs

     Self-consistent Calculation

     iteration #  1     ecut=    30.00 Ry     beta=0.70
     Davidson diagonalization with overlap
     ethr =  1.00E-06,  avg # of iterations =  5.0

     negative rho (up, down):  0.509E-01 0.000E+00

     total cpu time spent up to now is      475.2 secs

     total energy              =    -126.33524167 Ry
     Harris-Foulkes estimate   =    -126.33583613 Ry
     estimated scf accuracy    <       0.00134879 Ry

     iteration #  2     ecut=    30.00 Ry     beta=0.70
     Davidson diagonalization with overlap
     ethr =  3.75E-06,  avg # of iterations =  3.0

     negative rho (up, down):  0.510E-01 0.000E+00

     total cpu time spent up to now is      480.7 secs

     total energy              =    -126.33545380 Ry
     Harris-Foulkes estimate   =    -126.33579702 Ry
     estimated scf accuracy    <       0.00065055 Ry

     iteration #  3     ecut=    30.00 Ry     beta=0.70
     Davidson diagonalization with overlap
     ethr =  1.81E-06,  avg # of iterations =  3.0

     negative rho (up, down):  0.511E-01 0.000E+00

     total cpu time spent up to now is      486.1 secs

     total energy              =    -126.33562359 Ry
     Harris-Foulkes estimate   =    -126.33564277 Ry
     estimated scf accuracy    <       0.00005503 Ry

     iteration #  4     ecut=    30.00 Ry     beta=0.70
     Davidson diagonalization with overlap
     ethr =  1.53E-07,  avg # of iterations =  3.0

     negative rho (up, down):  0.511E-01 0.000E+00

     total cpu time spent up to now is      491.1 secs

     total energy              =    -126.33563384 Ry
     Harris-Foulkes estimate   =    -126.33563813 Ry
     estimated scf accuracy    <       0.00000939 Ry

     iteration #  5     ecut=    30.00 Ry     beta=0.70
     Davidson diagonalization with overlap
     ethr =  2.61E-08,  avg # of iterations =  4.0

     negative rho (up, down):  0.511E-01 0.000E+00

     total cpu time spent up to now is      496.4 secs

     total energy              =    -126.33563611 Ry
     Harris-Foulkes estimate   =    -126.33563735 Ry
     estimated scf accuracy    <       0.00000306 Ry

     iteration #  6     ecut=    30.00 Ry     beta=0.70
     Davidson diagonalization with overlap
     ethr =  8.49E-09,  avg # of iterations =  4.0

     negative rho (up, down):  0.511E-01 0.000E+00

     total cpu time spent up to now is      501.5 secs

     total energy              =    -126.33563673 Ry
     Harris-Foulkes estimate   =    -126.33563692 Ry
     estimated scf accuracy    <       0.00000048 Ry

     iteration #  7     ecut=    30.00 Ry     beta=0.70
     Davidson diagonalization with overlap
     ethr =  1.34E-09,  avg # of iterations =  4.0

     negative rho (up, down):  0.511E-01 0.000E+00

     total cpu time spent up to now is      506.9 secs

     total energy              =    -126.33563683 Ry
     Harris-Foulkes estimate   =    -126.33563685 Ry
     estimated scf accuracy    <       0.00000004 Ry

     iteration #  8     ecut=    30.00 Ry     beta=0.70
     Davidson diagonalization with overlap
     ethr =  1.12E-10,  avg # of iterations =  3.0

     negative rho (up, down):  0.511E-01 0.000E+00

     total cpu time spent up to now is      511.3 secs

     End of self-consistent calculation

          k = 0.0000 0.0000 0.0000 ( 37387 PWs)   bands (ev):

   -25.8714 -25.4397 -22.5943 -19.6478 -16.2610 -15.2436 -14.6164 -12.8676
   -11.7164 -10.7172 -10.1064  -9.6069  -9.2845  -8.8691  -8.6676  -5.2094
    -4.9594  -4.6111

!    total energy              =    -126.33563684 Ry
     Harris-Foulkes estimate   =    -126.33563684 Ry
     estimated scf accuracy    <          8.9E-10 Ry

     convergence has been achieved in   8 iterations

     Forces acting on atoms (Ry/au):

     atom    1 type  6   force =     0.03277760   -0.04487172    0.01976886
     atom    2 type  1   force =    -0.13004785    0.01984506   -0.26282076
     atom    3 type  6   force =     0.08945256    0.01701946    0.21805705
     atom    4 type  2   force =    -0.05769766   -0.01180651    0.00536020
     atom    5 type  7   force =     0.00202565    0.00889293    0.00220171
     atom    6 type  3   force =     0.01801695   -0.00674167   -0.01221407
     atom    7 type  3   force =     0.01388927    0.02420069   -0.00647541
     atom    8 type  3   force =    -0.01852685    0.00310004    0.02843199
     atom    9 type  4   force =     0.01330353   -0.00020908    0.01542867
     atom   10 type  2   force =     0.04010649   -0.00475728   -0.00086005
     atom   11 type  5   force =    -0.00153400    0.00155341   -0.00414610
     atom   12 type  5   force =     0.00139037   -0.00336275    0.00061949
     atom   13 type  5   force =    -0.00298280   -0.00289093   -0.00329139

     Total force =     0.392297     Total SCF correction =     0.000034

     Entering Dynamics:    iteration =    10
                           time      =   0.0097 pico-seconds


ATOMIC_POSITIONS (angstrom)
O        6.702286632   9.831104906   8.239358464
C1       7.434030485   9.056522802   9.017784332
O        7.867177455   9.176143694  10.088896825
C2       7.812157517   7.683252558   8.262840366
N        7.089148584   7.619108088   6.883746766
H1       7.366189657   6.830785696   6.320222653
H1       7.261553198   8.521280685   6.442117193
H1       6.074184306   7.599695148   6.884931655
H2       7.316314874   6.835415327   8.756495548
C2       9.269140728   7.529819442   8.079490667
H3       9.708949013   8.398800239   7.567386775
H3       9.586052196   6.617836753   7.553935411
H3       9.729471119   7.527879881   9.084327991


     kinetic energy (Ekin) =     0.04894702 Ry
     temperature           =   429.33966341 K 
     Ekin + Etot (const)   =  -126.28668982 Ry
     Message from routine dynamics:
     Total linear momentum <> 0

     Linear momentum :   -0.2235457593   -0.3411039760    0.1056611529

     Writing output data file alanine.save
     Check: negative starting charge=   -0.029238
     NEW-OLD atomic charge density approx. for the potential
     Check: negative starting charge=   -0.029293

     negative rho (up, down):  0.523E-01 0.000E+00

     total cpu time spent up to now is      517.9 secs

     Self-consistent Calculation

     iteration #  1     ecut=    30.00 Ry     beta=0.70
     Davidson diagonalization with overlap
     ethr =  1.00E-06,  avg # of iterations =  5.0

     negative rho (up, down):  0.510E-01 0.000E+00

     total cpu time spent up to now is      524.5 secs

     total energy              =    -126.32981666 Ry
     Harris-Foulkes estimate   =    -126.33011582 Ry
     estimated scf accuracy    <       0.00084927 Ry

     iteration #  2     ecut=    30.00 Ry     beta=0.70
     Davidson diagonalization with overlap
     ethr =  2.36E-06,  avg # of iterations =  3.0

     negative rho (up, down):  0.512E-01 0.000E+00

     total cpu time spent up to now is      530.0 secs

     total energy              =    -126.32994708 Ry
     Harris-Foulkes estimate   =    -126.33017585 Ry
     estimated scf accuracy    <       0.00044216 Ry

     iteration #  3     ecut=    30.00 Ry     beta=0.70
     Davidson diagonalization with overlap
     ethr =  1.23E-06,  avg # of iterations =  3.0

     negative rho (up, down):  0.513E-01 0.000E+00

     total cpu time spent up to now is      535.4 secs

     total energy              =    -126.33006026 Ry
     Harris-Foulkes estimate   =    -126.33007692 Ry
     estimated scf accuracy    <       0.00004542 Ry

     iteration #  4     ecut=    30.00 Ry     beta=0.70
     Davidson diagonalization with overlap
     ethr =  1.26E-07,  avg # of iterations =  4.0

     negative rho (up, down):  0.513E-01 0.000E+00

     total cpu time spent up to now is      540.8 secs

     total energy              =    -126.33006935 Ry
     Harris-Foulkes estimate   =    -126.33007575 Ry
     estimated scf accuracy    <       0.00001455 Ry

     iteration #  5     ecut=    30.00 Ry     beta=0.70
     Davidson diagonalization with overlap
     ethr =  4.04E-08,  avg # of iterations =  4.0

     negative rho (up, down):  0.513E-01 0.000E+00

     total cpu time spent up to now is      546.2 secs

     total energy              =    -126.33007257 Ry
     Harris-Foulkes estimate   =    -126.33007364 Ry
     estimated scf accuracy    <       0.00000279 Ry

     iteration #  6     ecut=    30.00 Ry     beta=0.70
     Davidson diagonalization with overlap
     ethr =  7.75E-09,  avg # of iterations =  4.0

     negative rho (up, down):  0.513E-01 0.000E+00

     total cpu time spent up to now is      551.3 secs

     total energy              =    -126.33007309 Ry
     Harris-Foulkes estimate   =    -126.33007324 Ry
     estimated scf accuracy    <       0.00000032 Ry

     iteration #  7     ecut=    30.00 Ry     beta=0.70
     Davidson diagonalization with overlap
     ethr =  8.78E-10,  avg # of iterations =  3.0

     negative rho (up, down):  0.513E-01 0.000E+00

     total cpu time spent up to now is      556.5 secs

     total energy              =    -126.33007318 Ry
     Harris-Foulkes estimate   =    -126.33007319 Ry
     estimated scf accuracy    <       0.00000002 Ry

     iteration #  8     ecut=    30.00 Ry     beta=0.70
     Davidson diagonalization with overlap
     ethr =  5.97E-11,  avg # of iterations =  3.0

     negative rho (up, down):  0.513E-01 0.000E+00

     total cpu time spent up to now is      561.1 secs

     End of self-consistent calculation

          k = 0.0000 0.0000 0.0000 ( 37387 PWs)   bands (ev):

   -25.9170 -25.4442 -22.6304 -19.6362 -16.2088 -15.2179 -14.5861 -12.7844
   -11.6516 -10.7504 -10.1302  -9.5992  -9.2822  -8.9297  -8.7100  -5.2603
    -5.0145  -4.6243

!    total energy              =    -126.33007319 Ry
     Harris-Foulkes estimate   =    -126.33007319 Ry
     estimated scf accuracy    <          1.7E-09 Ry

     convergence has been achieved in   8 iterations

     Forces acting on atoms (Ry/au):

     atom    1 type  6   force =     0.03846811   -0.04435551    0.03216126
     atom    2 type  1   force =    -0.13314730    0.00885965   -0.28562677
     atom    3 type  6   force =     0.09034411    0.02429228    0.22894622
     atom    4 type  2   force =    -0.07111134   -0.01220312   -0.00003045
     atom    5 type  7   force =     0.01148087    0.02206113    0.01105744
     atom    6 type  3   force =     0.02569517   -0.02119114   -0.02090649
     atom    7 type  3   force =     0.01399846    0.03093828   -0.01286556
     atom    8 type  3   force =    -0.02773657    0.00229078    0.03500193
     atom    9 type  4   force =     0.01333580   -0.00254935    0.01997822
     atom   10 type  2   force =     0.04422617   -0.00217731    0.00399530
     atom   11 type  5   force =    -0.00148676    0.00268787   -0.00544822
     atom   12 type  5   force =     0.00033134   -0.00545511   -0.00055555
     atom   13 type  5   force =    -0.00425947   -0.00326258   -0.00565997

     Total force =     0.422541     Total SCF correction =     0.000062

     Entering Dynamics:    iteration =    11
                           time      =   0.0106 pico-seconds


ATOMIC_POSITIONS (angstrom)
O        6.695820282   9.827922543   8.230865193
C1       7.426090037   9.066525461   9.020117899
O        7.869567244   9.166437149  10.096153491
C2       7.815748394   7.680310084   8.270093813
N        7.081128573   7.613472955   6.884200151
H1       7.364597341   6.839506245   6.303722192
H1       7.277450784   8.526629463   6.467646562
H1       6.064839420   7.605798212   6.852392817
H2       7.319041406   6.833967355   8.758724479
C2       9.270053827   7.525623058   8.079074454
H3       9.711193783   8.395332936   7.570046643
H3       9.596966886   6.614721384   7.559420581
H3       9.729464155   7.528748906   9.085473535


     kinetic energy (Ekin) =     0.04380182 Ry
     temperature           =   384.20847272 K 
     Ekin + Etot (const)   =  -126.28627136 Ry
     Message from routine dynamics:
     Total linear momentum <> 0

     Linear momentum :   -0.2839437143   -0.3410728416    0.1214712442

     Writing output data file alanine.save
     Check: negative starting charge=   -0.029293
     NEW-OLD atomic charge density approx. for the potential
     Check: negative starting charge=   -0.029407

     negative rho (up, down):  0.525E-01 0.000E+00

     total cpu time spent up to now is      567.8 secs

     Self-consistent Calculation

     iteration #  1     ecut=    30.00 Ry     beta=0.70
     Davidson diagonalization with overlap
     ethr =  1.00E-06,  avg # of iterations =  5.0

     negative rho (up, down):  0.511E-01 0.000E+00

     total cpu time spent up to now is      574.3 secs

     total energy              =    -126.33045441 Ry
     Harris-Foulkes estimate   =    -126.33066999 Ry
     estimated scf accuracy    <       0.00069484 Ry

     iteration #  2     ecut=    30.00 Ry     beta=0.70
     Davidson diagonalization with overlap
     ethr =  1.93E-06,  avg # of iterations =  4.0

     negative rho (up, down):  0.515E-01 0.000E+00

     total cpu time spent up to now is      580.0 secs

[...]
     Harris-Foulkes estimate   =    -126.34045298 Ry
     estimated scf accuracy    <       0.00076364 Ry

     iteration #  3     ecut=    30.00 Ry     beta=0.70
     Davidson diagonalization with overlap
     ethr =  2.12E-06,  avg # of iterations =  3.0

     negative rho (up, down):  0.516E-01 0.000E+00

     total cpu time spent up to now is    10023.9 secs

     total energy              =    -126.34024941 Ry
     Harris-Foulkes estimate   =    -126.34028902 Ry
     estimated scf accuracy    <       0.00010249 Ry

     iteration #  4     ecut=    30.00 Ry     beta=0.70
     Davidson diagonalization with overlap
     ethr =  2.85E-07,  avg # of iterations =  3.0

     negative rho (up, down):  0.516E-01 0.000E+00

     total cpu time spent up to now is    10029.3 secs

     total energy              =    -126.34026984 Ry
     Harris-Foulkes estimate   =    -126.34027790 Ry
     estimated scf accuracy    <       0.00001797 Ry

     iteration #  5     ecut=    30.00 Ry     beta=0.70
     Davidson diagonalization with overlap
     ethr =  4.99E-08,  avg # of iterations =  3.0

     negative rho (up, down):  0.516E-01 0.000E+00

     total cpu time spent up to now is    10034.4 secs

     total energy              =    -126.34027419 Ry
     Harris-Foulkes estimate   =    -126.34027467 Ry
     estimated scf accuracy    <       0.00000137 Ry

     iteration #  6     ecut=    30.00 Ry     beta=0.70
     Davidson diagonalization with overlap
     ethr =  3.80E-09,  avg # of iterations =  3.0

     negative rho (up, down):  0.516E-01 0.000E+00

     total cpu time spent up to now is    10039.6 secs

     total energy              =    -126.34027446 Ry
     Harris-Foulkes estimate   =    -126.34027467 Ry
     estimated scf accuracy    <       0.00000047 Ry

     iteration #  7     ecut=    30.00 Ry     beta=0.70
     Davidson diagonalization with overlap
     ethr =  1.31E-09,  avg # of iterations =  4.0

     negative rho (up, down):  0.516E-01 0.000E+00

     total cpu time spent up to now is    10045.1 secs

     total energy              =    -126.34027457 Ry
     Harris-Foulkes estimate   =    -126.34027460 Ry
     estimated scf accuracy    <       0.00000008 Ry

     iteration #  8     ecut=    30.00 Ry     beta=0.70
     Davidson diagonalization with overlap
     ethr =  2.33E-10,  avg # of iterations =  4.0

     negative rho (up, down):  0.516E-01 0.000E+00

     total cpu time spent up to now is    10049.3 secs

     End of self-consistent calculation

          k = 0.0000 0.0000 0.0000 ( 37387 PWs)   bands (ev):

   -26.0554 -24.5060 -23.6489 -18.5312 -16.0148 -13.9090 -13.0595 -12.0521
   -11.8138 -10.5503 -10.0946  -9.6905  -9.6072  -8.9598  -8.2707  -7.2438
    -6.8331  -5.6114

!    total energy              =    -126.34027459 Ry
     Harris-Foulkes estimate   =    -126.34027459 Ry
     estimated scf accuracy    <          2.4E-09 Ry

     convergence has been achieved in   8 iterations

     Forces acting on atoms (Ry/au):

     atom    1 type  6   force =     0.11170498   -0.03363878    0.00493616
     atom    2 type  1   force =    -0.00826954   -0.07450860    0.00091254
     atom    3 type  6   force =     0.00106337    0.03715559   -0.12618108
     atom    4 type  2   force =     0.02501218    0.03563385    0.10378435
     atom    5 type  7   force =     0.00268083    0.03816561    0.01394089
     atom    6 type  3   force =     0.02087930    0.03591073    0.01312558
     atom    7 type  3   force =    -0.08600576    0.01394676    0.01906466
     atom    8 type  3   force =    -0.02400765   -0.04014770    0.00285163
     atom    9 type  4   force =    -0.00146645   -0.00407809   -0.00616610
     atom   10 type  2   force =    -0.02646150   -0.00661067   -0.02206985
     atom   11 type  5   force =    -0.00809036   -0.00476383    0.00171234
     atom   12 type  5   force =    -0.00303823   -0.00222262   -0.00281995
     atom   13 type  5   force =    -0.00401761    0.00526327   -0.00315802

     Total force =     0.253745     Total SCF correction =     0.000074

     Entering Dynamics:    iteration =   199
                           time      =   0.1925 pico-seconds


ATOMIC_POSITIONS (angstrom)
O        5.805069996   8.922708245   8.088411393
C1       6.716945867   8.372667236   8.962754660
O        6.712436608   8.211405212  10.194055220
C2       7.893719686   7.518921219   7.889218562
N        7.591502623   7.962547911   6.531942641
H1       8.086766482   8.800646188   6.282706747
H1       6.468882965   8.538848302   7.194831662
H1       7.893903636   7.407238148   5.747077563
H2       7.586103641   6.470663380   8.031953602
C2       9.333462963   7.696874294   8.466924062
H3       9.659366439   8.757482251   8.427004345
H3      10.096176171   7.096391704   7.940475662
H3       9.324147333   7.384908334   9.516989853


     kinetic energy (Ekin) =     0.09797197 Ry
     temperature           =   859.36291267 K 
     Ekin + Etot (const)   =  -126.24230261 Ry
     Message from routine dynamics:
     Total linear momentum <> 0

     Linear momentum :   -0.0176876570    0.4815548459   -0.7775894050

     Writing output data file alanine.save
     Check: negative starting charge=   -0.029556
     NEW-OLD atomic charge density approx. for the potential
     Check: negative starting charge=   -0.029623

     negative rho (up, down):  0.532E-01 0.000E+00

     total cpu time spent up to now is    10055.9 secs

     Self-consistent Calculation

     iteration #  1     ecut=    30.00 Ry     beta=0.70
     Davidson diagonalization with overlap
     ethr =  1.00E-06,  avg # of iterations =  7.0

     negative rho (up, down):  0.514E-01 0.000E+00

     total cpu time spent up to now is    10062.9 secs

     total energy              =    -126.34578879 Ry
     Harris-Foulkes estimate   =    -126.34637446 Ry
     estimated scf accuracy    <       0.00164995 Ry

     iteration #  2     ecut=    30.00 Ry     beta=0.70
     Davidson diagonalization with overlap
     ethr =  4.58E-06,  avg # of iterations =  3.0

     negative rho (up, down):  0.517E-01 0.000E+00

     total cpu time spent up to now is    10068.2 secs

     total energy              =    -126.34598599 Ry
     Harris-Foulkes estimate   =    -126.34627143 Ry
     estimated scf accuracy    <       0.00052311 Ry

     iteration #  3     ecut=    30.00 Ry     beta=0.70
     Davidson diagonalization with overlap
     ethr =  1.45E-06,  avg # of iterations =  4.0

     negative rho (up, down):  0.518E-01 0.000E+00

     total cpu time spent up to now is    10073.7 secs

     total energy              =    -126.34611917 Ry
     Harris-Foulkes estimate   =    -126.34619859 Ry
     estimated scf accuracy    <       0.00017916 Ry

     iteration #  4     ecut=    30.00 Ry     beta=0.70
     Davidson diagonalization with overlap
     ethr =  4.98E-07,  avg # of iterations =  4.0

     negative rho (up, down):  0.519E-01 0.000E+00

     total cpu time spent up to now is    10079.1 secs

     total energy              =    -126.34615342 Ry
     Harris-Foulkes estimate   =    -126.34617525 Ry
     estimated scf accuracy    <       0.00005471 Ry

     iteration #  5     ecut=    30.00 Ry     beta=0.70
     Davidson diagonalization with overlap
     ethr =  1.52E-07,  avg # of iterations =  4.0

     negative rho (up, down):  0.519E-01 0.000E+00

     total cpu time spent up to now is    10084.5 secs

     total energy              =    -126.34616493 Ry
     Harris-Foulkes estimate   =    -126.34616604 Ry
     estimated scf accuracy    <       0.00000329 Ry

     iteration #  6     ecut=    30.00 Ry     beta=0.70
     Davidson diagonalization with overlap
     ethr =  9.14E-09,  avg # of iterations =  4.0

     negative rho (up, down):  0.519E-01 0.000E+00

     total cpu time spent up to now is    10090.2 secs

     total energy              =    -126.34616570 Ry
     Harris-Foulkes estimate   =    -126.34616599 Ry
     estimated scf accuracy    <       0.00000064 Ry

     iteration #  7     ecut=    30.00 Ry     beta=0.70
     Davidson diagonalization with overlap
     ethr =  1.78E-09,  avg # of iterations =  3.0

     negative rho (up, down):  0.519E-01 0.000E+00

     total cpu time spent up to now is    10095.5 secs

     total energy              =    -126.34616583 Ry
     Harris-Foulkes estimate   =    -126.34616586 Ry
     estimated scf accuracy    <       0.00000008 Ry

     iteration #  8     ecut=    30.00 Ry     beta=0.70
     Davidson diagonalization with overlap
     ethr =  2.14E-10,  avg # of iterations =  3.0

     negative rho (up, down):  0.519E-01 0.000E+00

     total cpu time spent up to now is    10100.1 secs

     End of self-consistent calculation

          k = 0.0000 0.0000 0.0000 ( 37387 PWs)   bands (ev):

   -26.2350 -24.7353 -23.6015 -18.5664 -16.0108 -13.7747 -13.1083 -12.0912
   -11.8359 -10.5554 -10.2102  -9.7441  -9.6507  -8.8866  -8.3194  -7.3171
    -6.9552  -5.6877

!    total energy              =    -126.34616585 Ry
     Harris-Foulkes estimate   =    -126.34616585 Ry
     estimated scf accuracy    <          4.6E-09 Ry

     convergence has been achieved in   8 iterations

     Forces acting on atoms (Ry/au):

     atom    1 type  6   force =     0.10631807   -0.04817772    0.01573035
     atom    2 type  1   force =    -0.00040695   -0.06011431   -0.02101477
     atom    3 type  6   force =    -0.00028602    0.03132476   -0.09782939
     atom    4 type  2   force =     0.02021000    0.01537738    0.10434195
     atom    5 type  7   force =     0.00066539    0.03240184    0.01958705
     atom    6 type  3   force =     0.01688070    0.04330419    0.01667719
     atom    7 type  3   force =    -0.08599126    0.03505728    0.00285223
     atom    8 type  3   force =    -0.01812233   -0.05350544   -0.00820359
     atom    9 type  4   force =    -0.00326795    0.00273220   -0.01034483
     atom   10 type  2   force =    -0.02263671    0.01106869   -0.02472063
     atom   11 type  5   force =    -0.00533644   -0.00873686    0.00058133
     atom   12 type  5   force =    -0.00636641   -0.00133111   -0.00209623
     atom   13 type  5   force =    -0.00163047    0.00063535    0.00451398

     Total force =     0.239417     Total SCF correction =     0.000131

     Entering Dynamics:    iteration =   200
                           time      =   0.1935 pico-seconds


ATOMIC_POSITIONS (angstrom)
O        5.808539317   8.923341288   8.076822006
C1       6.712878145   8.362093901   8.962527177
O        6.707925042   8.217105485  10.179460750
C2       7.907331644   7.538909583   7.884194648
N        7.591595318   7.970898656   6.526735627
H1       8.086839419   8.814254150   6.253348557
H1       6.419003051   8.479242733   7.244316430
H1       7.887085108   7.399085077   5.752359276
H2       7.618530685   6.479036103   8.032094738
C2       9.338063415   7.698294268   8.463291164
H3       9.652029735   8.764671442   8.444003843
H3      10.114012488   7.106151687   7.943767400
H3       9.305504883   7.392567042   9.509510329


     kinetic energy (Ekin) =     0.10215622 Ry
     temperature           =   896.06511972 K 
     Ekin + Etot (const)   =  -126.24400963 Ry
     Message from routine dynamics:
     Total linear momentum <> 0

     Linear momentum :    0.1749870563    0.4694854771   -0.8036214975
     Check: negative starting charge=   -0.029623
     NEW-OLD atomic charge density approx. for the potential
     Check: negative starting charge=   -0.029662

     negative rho (up, down):  0.535E-01 0.000E+00

     total cpu time spent up to now is    10105.9 secs

     Self-consistent Calculation

     iteration #  1     ecut=    30.00 Ry     beta=0.70
     Davidson diagonalization with overlap
     ethr =  1.00E-06,  avg # of iterations =  7.0

     negative rho (up, down):  0.517E-01 0.000E+00

     total cpu time spent up to now is    10112.8 secs

     total energy              =    -126.35223079 Ry
     Harris-Foulkes estimate   =    -126.35275804 Ry
     estimated scf accuracy    <       0.00167476 Ry

     iteration #  2     ecut=    30.00 Ry     beta=0.70
     Davidson diagonalization with overlap
     ethr =  4.65E-06,  avg # of iterations =  3.0

     negative rho (up, down):  0.520E-01 0.000E+00

     total cpu time spent up to now is    10118.1 secs

     total energy              =    -126.35239213 Ry
     Harris-Foulkes estimate   =    -126.35258096 Ry
     estimated scf accuracy    <       0.00035687 Ry

     iteration #  3     ecut=    30.00 Ry     beta=0.70
     Davidson diagonalization with overlap
     ethr =  9.91E-07,  avg # of iterations =  4.0

     negative rho (up, down):  0.522E-01 0.000E+00

     total cpu time spent up to now is    10123.7 secs

     total energy              =    -126.35245885 Ry
     Harris-Foulkes estimate   =    -126.35260276 Ry
     estimated scf accuracy    <       0.00033981 Ry

     iteration #  4     ecut=    30.00 Ry     beta=0.70
     Davidson diagonalization with overlap
     ethr =  9.44E-07,  avg # of iterations =  4.0

     negative rho (up, down):  0.522E-01 0.000E+00

     total cpu time spent up to now is    10128.8 secs

     total energy              =    -126.35252596 Ry
     Harris-Foulkes estimate   =    -126.35254175 Ry
     estimated scf accuracy    <       0.00003899 Ry

     iteration #  5     ecut=    30.00 Ry     beta=0.70
     Davidson diagonalization with overlap
     ethr =  1.08E-07,  avg # of iterations =  4.0

     negative rho (up, down):  0.522E-01 0.000E+00

     total cpu time spent up to now is    10134.1 secs

     total energy              =    -126.35253540 Ry
     Harris-Foulkes estimate   =    -126.35253647 Ry
     estimated scf accuracy    <       0.00000329 Ry

     iteration #  6     ecut=    30.00 Ry     beta=0.70
     Davidson diagonalization with overlap
     ethr =  9.14E-09,  avg # of iterations =  2.0

     negative rho (up, down):  0.522E-01 0.000E+00

     total cpu time spent up to now is    10139.4 secs

     total energy              =    -126.35253601 Ry
     Harris-Foulkes estimate   =    -126.35253603 Ry
     estimated scf accuracy    <       0.00000007 Ry

     iteration #  7     ecut=    30.00 Ry     beta=0.70
     Davidson diagonalization with overlap
     ethr =  1.86E-10,  avg # of iterations =  3.0

     negative rho (up, down):  0.523E-01 0.000E+00

     total cpu time spent up to now is    10144.2 secs

     End of self-consistent calculation

          k = 0.0000 0.0000 0.0000 ( 37387 PWs)   bands (ev):

   -26.4795 -25.0041 -23.4234 -18.5737 -15.9346 -13.5908 -13.1625 -12.1324
   -11.8062 -10.5663 -10.3427  -9.8241  -9.6982  -8.8007  -8.3991  -7.3463
    -7.0908  -5.7562

!    total energy              =    -126.35253605 Ry
     Harris-Foulkes estimate   =    -126.35253605 Ry
     estimated scf accuracy    <          4.9E-09 Ry

     convergence has been achieved in   7 iterations

     Forces acting on atoms (Ry/au):

     atom    1 type  6   force =     0.09130800   -0.05764760    0.02983369
     atom    2 type  1   force =     0.01188338   -0.04611946   -0.04724927
     atom    3 type  6   force =    -0.00223239    0.02524793   -0.06283773
     atom    4 type  2   force =     0.01003499   -0.00278589    0.09853413
     atom    5 type  7   force =     0.01131103    0.03505428    0.01051296
     atom    6 type  3   force =     0.00368842    0.02919655    0.02186315
     atom    7 type  3   force =    -0.07784324    0.04989990   -0.01480518
     atom    8 type  3   force =    -0.01401171   -0.05313468   -0.00672895
     atom    9 type  4   force =    -0.00519380    0.00864045   -0.01353489
     atom   10 type  2   force =    -0.01838410    0.02623344   -0.02373761
     atom   11 type  5   force =    -0.00173308   -0.01038069   -0.00086786
     atom   12 type  5   force =    -0.00961939   -0.00054608   -0.00141086
     atom   13 type  5   force =     0.00087932   -0.00364960    0.01048776

     Total force =     0.219794     Total SCF correction =     0.000136

     The maximum number of steps has been reached.

     End of molecular dynamics calculation

     diffusion coefficients :
     atom     1   D =       0.00014980 cm^2/s
     atom     2   D =       0.00007765 cm^2/s
     atom     3   D =       0.00020547 cm^2/s
     atom     4   D =       0.00001327 cm^2/s
     atom     5   D =       0.00003726 cm^2/s
     atom     6   D =       0.00038163 cm^2/s
     atom     7   D =       0.00013594 cm^2/s
     atom     8   D =       0.00043558 cm^2/s
     atom     9   D =       0.00006970 cm^2/s
     atom    10   D =       0.00001566 cm^2/s
     atom    11   D =       0.00008316 cm^2/s
     atom    12   D =       0.00006790 cm^2/s
     atom    13   D =       0.00003207 cm^2/s

     < D > =       0.00013116 cm^2/s

     Entering Dynamics:    iteration =   201
                           time      =   0.1945 pico-seconds


ATOMIC_POSITIONS (angstrom)
O        5.815771906   8.922702618   8.066072163
C1       6.710712186   8.350088102   8.961384241
O        6.704445720   8.222934830  10.164105201
C2       7.922348670   7.558527659   7.881373586
N        7.592785572   7.979293221   6.522063692
H1       8.091820789   8.836500154   6.230355823
H1       6.354246488   8.430760924   7.287537585
H1       7.878592474   7.377368746   5.754587574
H2       7.651074310   6.489208119   8.028865468
C2       9.343472584   7.699918938   8.459327194
H3       9.645632886   8.768986430   8.460931235
H3      10.130741351   7.115524135   7.946821539
H3       9.288563714   7.399141739   9.504552323


     kinetic energy (Ekin) =     0.10658547 Ry
     temperature           =   934.91638423 K 
     Ekin + Etot (const)   =  -126.24595058 Ry
     Message from routine dynamics:
     Total linear momentum <> 0

     Linear momentum :    0.3636691819    0.4218612730   -0.7805220503

     Writing output data file alanine.save
 
     init_run     :      4.33s CPU      4.86s WALL (       1 calls)
     electrons    :   7481.83s CPU   8808.36s WALL (     201 calls)
     update_pot   :    497.14s CPU    561.49s WALL (     200 calls)
     forces       :    412.48s CPU    419.96s WALL (     201 calls)

     Called by init_run:
     wfcinit      :      0.93s CPU      1.11s WALL (       1 calls)
     potinit      :      1.51s CPU      1.62s WALL (       1 calls)

     Called by electrons:
     c_bands      :   2800.90s CPU   3287.10s WALL (    1606 calls)
     sum_band     :   1634.59s CPU   1798.04s WALL (    1606 calls)
     v_of_rho     :   1302.61s CPU   1445.53s WALL (    1807 calls)
     newd         :   1089.36s CPU   1267.26s WALL (    1807 calls)
     mix_rho      :    205.18s CPU    225.31s WALL (    1606 calls)

     Called by c_bands:
     init_us_2    :      9.71s CPU     10.08s WALL (    3213 calls)
     regterg      :   2787.32s CPU   3273.28s WALL (    1606 calls)

     Called by *egterg:
     h_psi        :   2717.42s CPU   3196.09s WALL (    7478 calls)
     s_psi        :     11.65s CPU     11.64s WALL (    7478 calls)
     g_psi        :      5.57s CPU      5.53s WALL (    5871 calls)
     rdiaghg      :      7.50s CPU      7.53s WALL (    7277 calls)

     Called by h_psi:
     add_vuspsi   :     11.54s CPU     11.57s WALL (    7478 calls)

     General routines
     calbec       :     32.52s CPU     32.45s WALL (    9888 calls)
     fft          :   1665.32s CPU   1865.78s WALL (   28710 calls)
     ffts         :     97.59s CPU    114.21s WALL (    3413 calls)
     fftw         :   2901.77s CPU   3468.19s WALL (  109686 calls)
     interpolate  :    288.67s CPU    338.93s WALL (    3413 calls)
     davcio       :      0.02s CPU      7.88s WALL (    1606 calls)
 
     Parallel routines
     fft_scatter  :   3313.22s CPU   4020.62s WALL (  141809 calls)
 
     PWSCF        :     2h24m CPU        2h49m WALL

 
   This run was terminated on:  18:34:59  12Dec2011            

=------------------------------------------------------------------------------=
   JOB DONE.
=------------------------------------------------------------------------------=
