
     Program PWSCF v.5.0.2 (svn rev. 9392) starts on 11Feb2015 at 18:56:14 

     This program is part of the open-source Quantum ESPRESSO suite
     for quantum simulation of materials; please cite
         "P. Giannozzi et al., J. Phys.:Condens. Matter 21 395502 (2009);
          URL http://www.quantum-espresso.org", 
     in publications or presentations arising from this work. More details at
     http://www.quantum-espresso.org/quote.php

     Parallel version (MPI), running on    20 processors
     R & G space division:  proc/nbgrp/npool/nimage =      20

     Current dimensions of program PWSCF are:
     Max number of different atomic species (ntypx) = 10
     Max number of k-points (npk) =  40000
     Max angular momentum in pseudopotentials (lmaxx) =  3
     Waiting for input...
     Reading input from standard input

     gamma-point specific algorithms are used
 XXXXXXXXXX Plain mechanical coupling execution XXXXXXXX

     Subspace diagonalization in iterative solution of the eigenvalue problem:
     a serial algorithm will be used


     Parallelization info
     --------------------
     sticks:   dense  smooth     PW     G-vecs:    dense   smooth      PW
     Min         248     100     24                13304     3352     416
     Max         251     102     26                13314     3406     426
     Sum        4997    2009    497               266195    67451    8385
     Tot        2499    1005    249


     Title: 
     QMMM                                                                       


     bravais-lattice index     =            1
     lattice parameter (alat)  =      15.8600  a.u.
     unit-cell volume          =    3989.4181 (a.u.)^3
     number of atoms/cell      =            4
     number of atomic types    =            2
     number of electrons       =         8.00
     number of Kohn-Sham states=            4
     kinetic-energy cutoff     =      25.0000  Ry
     charge density cutoff     =     250.0000  Ry
     convergence threshold     =      1.0E-06
     mixing beta               =       0.7000
     number of iterations used =            8  plain     mixing
     Exchange-correlation      =  SLA  PW   PBE  PBE ( 1 4 3 4 0)
     EXX-fraction              =        0.00
     nstep                     =          100


     celldm(1)=  15.860000  celldm(2)=   0.000000  celldm(3)=   0.000000
     celldm(4)=   0.000000  celldm(5)=   0.000000  celldm(6)=   0.000000

     crystal axes: (cart. coord. in units of alat)
               a(1) = (   1.000000   0.000000   0.000000 )  
               a(2) = (   0.000000   1.000000   0.000000 )  
               a(3) = (   0.000000   0.000000   1.000000 )  

     reciprocal axes: (cart. coord. in units 2 pi/alat)
               b(1) = (  1.000000  0.000000  0.000000 )  
               b(2) = (  0.000000  1.000000  0.000000 )  
               b(3) = (  0.000000  0.000000  1.000000 )  


     PseudoPot. # 1 for N  read from file:
     pseudo/N.pbe-van_ak.UPF
     MD5 check sum: 1179dd96bccda41bd78de041b702c012
     Pseudo is Ultrasoft, Zval =  5.0
     Generated by new atomic code, or converted to UPF format
     Using radial grid of  729 points,  4 beta functions with: 
                l(1) =   0
                l(2) =   0
                l(3) =   1
                l(4) =   1
     Q(r) pseudized with  8 coefficients,  rinner =    0.800   0.800   0.800


     PseudoPot. # 2 for H  read from file:
     pseudo/H.pbe-van_ak.UPF
     MD5 check sum: 077eb6d537518a38cb46c6de387227b7
     Pseudo is Ultrasoft, Zval =  1.0
     Generated by new atomic code, or converted to UPF format
     Using radial grid of  615 points,  1 beta functions with: 
                l(1) =   0
     Q(r) pseudized with  8 coefficients,  rinner =    0.800

     atomic species   valence    mass     pseudopotential
        N              5.00    14.00070     N ( 1.00)
        H              1.00     1.00800     H ( 1.00)

     No symmetry found



   Cartesian axes

     site n.     atom                  positions (alat units)
         1           N   tau(   1) = (   0.5303503   0.5242352   0.4900149  )
         2           H   tau(   2) = (   0.4687853   0.5197909   0.5963531  )
         3           H   tau(   3) = (   0.5665959   0.4128653   0.4934869  )
         4           H   tau(   4) = (   0.4342686   0.5431086   0.4201451  )

     number of k points=     1
                       cart. coord. in units 2pi/alat
        k(    1) = (   0.0000000   0.0000000   0.0000000), wk =   2.0000000

     Dense  grid:   133098 G-vectors     FFT dimensions: (  80,  80,  80)

     Smooth grid:    33726 G-vectors     FFT dimensions: (  54,  54,  54)

     Largest allocated arrays     est. size (Mb)     dimensions
        Kohn-Sham Wavefunctions         0.01 Mb     (    213,    4)
        NL pseudopotentials             0.04 Mb     (    213,   11)
        Each V/rho on FFT grid          0.39 Mb     (  25600)
        Each G-vector array             0.05 Mb     (   6657)
        G-vector shells                 0.01 Mb     (   1118)
     Largest temporary arrays     est. size (Mb)     dimensions
        Auxiliary wavefunctions         0.03 Mb     (    213,   16)
        Each subspace H/S matrix        0.00 Mb     (  16,  16)
        Each <psi_i|beta_j> matrix      0.00 Mb     (     11,    4)
        Arrays for rho mixing           3.13 Mb     (  25600,   8)

     Initial potential from superposition of free atoms
     Check: negative starting charge=   -0.000556

     starting charge    7.99996, renormalised to    8.00000

     negative rho (up, down):  0.556E-03 0.000E+00
     Starting wfc are    7 randomized atomic wfcs

     total cpu time spent up to now is        0.4 secs

     per-process dynamical memory:    10.3 Mb

     Self-consistent Calculation

     iteration #  1     ecut=    25.00 Ry     beta=0.70
     Davidson diagonalization with overlap
     ethr =  1.00E-02,  avg # of iterations =  2.0

     negative rho (up, down):  0.240E-02 0.000E+00

     total cpu time spent up to now is        0.6 secs

     total energy              =     -23.16674150 Ry
     Harris-Foulkes estimate   =     -23.65245072 Ry
     estimated scf accuracy    <       0.67538241 Ry

     iteration #  2     ecut=    25.00 Ry     beta=0.70
     Davidson diagonalization with overlap
     ethr =  8.44E-03,  avg # of iterations =  2.0

     negative rho (up, down):  0.355E-02 0.000E+00

     total cpu time spent up to now is        0.8 secs

     total energy              =     -23.32055640 Ry
     Harris-Foulkes estimate   =     -23.58874257 Ry
     estimated scf accuracy    <       0.54659465 Ry

     iteration #  3     ecut=    25.00 Ry     beta=0.70
     Davidson diagonalization with overlap
     ethr =  6.83E-03,  avg # of iterations =  2.0

     negative rho (up, down):  0.377E-02 0.000E+00

     total cpu time spent up to now is        0.9 secs

     total energy              =     -23.43162005 Ry
     Harris-Foulkes estimate   =     -23.43472636 Ry
     estimated scf accuracy    <       0.00705327 Ry

     iteration #  4     ecut=    25.00 Ry     beta=0.70
     Davidson diagonalization with overlap
     ethr =  8.82E-05,  avg # of iterations =  2.0

     negative rho (up, down):  0.362E-02 0.000E+00

     total cpu time spent up to now is        1.1 secs

     total energy              =     -23.43290898 Ry
     Harris-Foulkes estimate   =     -23.43361824 Ry
     estimated scf accuracy    <       0.00155863 Ry

     iteration #  5     ecut=    25.00 Ry     beta=0.70
     Davidson diagonalization with overlap
     ethr =  1.95E-05,  avg # of iterations =  1.0

     negative rho (up, down):  0.369E-02 0.000E+00

     total cpu time spent up to now is        1.2 secs

     total energy              =     -23.43298707 Ry
     Harris-Foulkes estimate   =     -23.43300205 Ry
     estimated scf accuracy    <       0.00003973 Ry

     iteration #  6     ecut=    25.00 Ry     beta=0.70
     Davidson diagonalization with overlap
     ethr =  4.97E-07,  avg # of iterations =  2.0

     negative rho (up, down):  0.371E-02 0.000E+00

     total cpu time spent up to now is        1.4 secs

     total energy              =     -23.43299682 Ry
     Harris-Foulkes estimate   =     -23.43299741 Ry
     estimated scf accuracy    <       0.00000250 Ry

     iteration #  7     ecut=    25.00 Ry     beta=0.70
     Davidson diagonalization with overlap
     ethr =  3.12E-08,  avg # of iterations =  2.0

     negative rho (up, down):  0.372E-02 0.000E+00

     total cpu time spent up to now is        1.5 secs

     total energy              =     -23.43299659 Ry
     Harris-Foulkes estimate   =     -23.43299727 Ry
     estimated scf accuracy    <       0.00000165 Ry

     iteration #  8     ecut=    25.00 Ry     beta=0.70
     Davidson diagonalization with overlap
     ethr =  2.06E-08,  avg # of iterations =  2.0

     negative rho (up, down):  0.373E-02 0.000E+00

     total cpu time spent up to now is        1.7 secs

     End of self-consistent calculation

          k = 0.0000 0.0000 0.0000 (  4193 PWs)   bands (ev):

   -21.3232 -11.6355 -10.2121  -6.2141

!    total energy              =     -23.43299671 Ry
     Harris-Foulkes estimate   =     -23.43299672 Ry
     estimated scf accuracy    <       0.00000002 Ry

     convergence has been achieved in   8 iterations

     Forces acting on atoms (Ry/au):

     atom    1 type  1   force =    -0.02717427    0.06945076    0.06733859
     atom    2 type  2   force =     0.01029150    0.02616783    0.02055088
     atom    3 type  2   force =     0.02388455   -0.07868096   -0.04174353
     atom    4 type  2   force =    -0.00698582   -0.01682490   -0.04616015

     Total force =     0.149250     Total SCF correction =     0.000112

     Molecular Dynamics Calculation
     mass N                =    14.00
     mass H                =     1.01
     Time step             =    20.00 a.u.,  0.9676 femto-seconds

     Entering Dynamics:    iteration =     1
                           time      =   0.0010 pico-seconds


ATOMIC_POSITIONS (angstrom)
N        4.450872279   4.400350503   4.113131351
H        3.935583203   4.365488946   5.007410257
H        4.758049079   3.456010699   4.136904140
H        3.643902911   4.556236320   3.520855359


     kinetic energy (Ekin) =     0.00000000 Ry
     temperature           =     0.00000000 K 
     Ekin + Etot (const)   =   -23.43299671 Ry

     Linear momentum :    0.0000000000    0.0000000000    0.0000000000

     Writing output data file ms2.save
     Check: negative starting charge=   -0.000556
     NEW-OLD atomic charge density approx. for the potential
     Check: negative starting charge=   -0.000556

     negative rho (up, down):  0.371E-02 0.000E+00

     total cpu time spent up to now is        2.1 secs

     per-process dynamical memory:    13.6 Mb

     Self-consistent Calculation

     iteration #  1     ecut=    25.00 Ry     beta=0.70
     Davidson diagonalization with overlap
     ethr =  1.00E-06,  avg # of iterations =  4.0

     negative rho (up, down):  0.368E-02 0.000E+00

     total cpu time spent up to now is        2.3 secs

     total energy              =     -23.43564844 Ry
     Harris-Foulkes estimate   =     -23.43579978 Ry
     estimated scf accuracy    <       0.00022453 Ry

     iteration #  2     ecut=    25.00 Ry     beta=0.70
     Davidson diagonalization with overlap
     ethr =  2.81E-06,  avg # of iterations =  2.0

     negative rho (up, down):  0.370E-02 0.000E+00

     total cpu time spent up to now is        2.5 secs

     total energy              =     -23.43570021 Ry
     Harris-Foulkes estimate   =     -23.43578110 Ry
     estimated scf accuracy    <       0.00016068 Ry

     iteration #  3     ecut=    25.00 Ry     beta=0.70
     Davidson diagonalization with overlap
     ethr =  2.01E-06,  avg # of iterations =  2.0

     negative rho (up, down):  0.371E-02 0.000E+00

     total cpu time spent up to now is        2.6 secs

     total energy              =     -23.43573413 Ry
     Harris-Foulkes estimate   =     -23.43573422 Ry
     estimated scf accuracy    <       0.00000110 Ry

     iteration #  4     ecut=    25.00 Ry     beta=0.70
     Davidson diagonalization with overlap
     ethr =  1.37E-08,  avg # of iterations =  2.0

     negative rho (up, down):  0.371E-02 0.000E+00

     total cpu time spent up to now is        2.7 secs

     End of self-consistent calculation

          k = 0.0000 0.0000 0.0000 (  4193 PWs)   bands (ev):

   -21.2497 -11.5461 -10.2104  -6.2176

!    total energy              =     -23.43573442 Ry
     Harris-Foulkes estimate   =     -23.43573446 Ry
     estimated scf accuracy    <       0.00000008 Ry

     convergence has been achieved in   4 iterations

     Forces acting on atoms (Ry/au):

     atom    1 type  1   force =    -0.02651487    0.04889062    0.06418817
     atom    2 type  2   force =     0.01184617    0.02490313    0.01622736
     atom    3 type  2   force =     0.01607445   -0.05633927   -0.04022285
     atom    4 type  2   force =    -0.00149003   -0.01751105   -0.04018766

     Total force =     0.123335     Total SCF correction =     0.000506

     Entering Dynamics:    iteration =     2
                           time      =   0.0019 pico-seconds


ATOMIC_POSITIONS (angstrom)
N        4.450986794   4.405367886   4.116014853
H        3.936900231   4.374672317   5.016787864
H        4.763096797   3.432701804   4.125525857
H        3.639362659   4.550496136   3.507581706


     kinetic energy (Ekin) =     0.00276432 Ry
     temperature           =    96.98929632 K 
     Ekin + Etot (const)   =   -23.43297010 Ry
     Message from routine dynamics:
     Total linear momentum <> 0

     Linear momentum :    0.0093459964    0.1363521207    0.0678052056

     Writing output data file ms2.save
     Check: negative starting charge=   -0.000556
     NEW-OLD atomic charge density approx. for the potential
     Check: negative starting charge=   -0.000553

     negative rho (up, down):  0.368E-02 0.000E+00

     total cpu time spent up to now is        3.2 secs

     per-process dynamical memory:    13.6 Mb

     Self-consistent Calculation

     iteration #  1     ecut=    25.00 Ry     beta=0.70
     Davidson diagonalization with overlap
     ethr =  1.00E-06,  avg # of iterations =  4.0

     negative rho (up, down):  0.360E-02 0.000E+00

     total cpu time spent up to now is        3.4 secs

     total energy              =     -23.43957155 Ry
     Harris-Foulkes estimate   =     -23.44051502 Ry
     estimated scf accuracy    <       0.00140237 Ry

     iteration #  2     ecut=    25.00 Ry     beta=0.70
     Davidson diagonalization with overlap
     ethr =  1.75E-05,  avg # of iterations =  2.0

     negative rho (up, down):  0.366E-02 0.000E+00

     total cpu time spent up to now is        3.6 secs

     total energy              =     -23.43989207 Ry
     Harris-Foulkes estimate   =     -23.44043371 Ry
     estimated scf accuracy    <       0.00109197 Ry

     iteration #  3     ecut=    25.00 Ry     beta=0.70
     Davidson diagonalization with overlap
     ethr =  1.36E-05,  avg # of iterations =  2.0

     negative rho (up, down):  0.367E-02 0.000E+00

     total cpu time spent up to now is        3.7 secs

     total energy              =     -23.44011876 Ry
     Harris-Foulkes estimate   =     -23.44011875 Ry
     estimated scf accuracy    <       0.00000635 Ry

     iteration #  4     ecut=    25.00 Ry     beta=0.70
     Davidson diagonalization with overlap
     ethr =  7.94E-08,  avg # of iterations =  2.0

     negative rho (up, down):  0.366E-02 0.000E+00

     total cpu time spent up to now is        3.8 secs

     End of self-consistent calculation

          k = 0.0000 0.0000 0.0000 (  4193 PWs)   bands (ev):

   -21.0671 -11.3149 -10.2098  -6.2268

!    total energy              =     -23.44012075 Ry
     Harris-Foulkes estimate   =     -23.44012110 Ry
     estimated scf accuracy    <       0.00000066 Ry

     convergence has been achieved in   4 iterations

     Forces acting on atoms (Ry/au):

     atom    1 type  1   force =    -0.02726627    0.00418270    0.05467210
     atom    2 type  2   force =     0.01552730    0.02156863    0.00518089
     atom    3 type  2   force =    -0.00044917   -0.00747421   -0.03509376
     atom    4 type  2   force =     0.01205933   -0.01843982   -0.02473334

     Total force =     0.082873     Total SCF correction =     0.001488

     Entering Dynamics:    iteration =     3
                           time      =   0.0029 pico-seconds


ATOMIC_POSITIONS (angstrom)
N        4.451926003   4.416160208   4.122201173
H        3.938164559   4.389746744   5.032696399
H        4.765925812   3.406757494   4.110920634
H        3.632789498   4.541190548   3.491215610


     kinetic energy (Ekin) =     0.00897533 Ry
     temperature           =   314.90900200 K 
     Ekin + Etot (const)   =   -23.43114543 Ry
     Message from routine dynamics:
     Total linear momentum <> 0

     Linear momentum :    0.0289142923    0.3550187472    0.1939293592

     Writing output data file ms2.save
     Check: negative starting charge=   -0.000553
     NEW-OLD atomic charge density approx. for the potential
     Check: negative starting charge=   -0.000538

     negative rho (up, down):  0.366E-02 0.000E+00

     total cpu time spent up to now is        4.3 secs

     per-process dynamical memory:    13.6 Mb

     Self-consistent Calculation

     iteration #  1     ecut=    25.00 Ry     beta=0.70
     Davidson diagonalization with overlap
     ethr =  1.00E-06,  avg # of iterations =  5.0

     negative rho (up, down):  0.354E-02 0.000E+00

     total cpu time spent up to now is        4.5 secs

     total energy              =     -23.44065138 Ry
     Harris-Foulkes estimate   =     -23.44185970 Ry
     estimated scf accuracy    <       0.00182348 Ry

     iteration #  2     ecut=    25.00 Ry     beta=0.70
     Davidson diagonalization with overlap
     ethr =  2.28E-05,  avg # of iterations =  2.0

     negative rho (up, down):  0.361E-02 0.000E+00

     total cpu time spent up to now is        4.6 secs

     total energy              =     -23.44105665 Ry
     Harris-Foulkes estimate   =     -23.44179556 Ry
     estimated scf accuracy    <       0.00150750 Ry

     iteration #  3     ecut=    25.00 Ry     beta=0.70
     Davidson diagonalization with overlap
     ethr =  1.88E-05,  avg # of iterations =  2.0

     negative rho (up, down):  0.362E-02 0.000E+00

     total cpu time spent up to now is        4.8 secs

     total energy              =     -23.44136832 Ry
     Harris-Foulkes estimate   =     -23.44136774 Ry
     estimated scf accuracy    <       0.00000885 Ry

     iteration #  4     ecut=    25.00 Ry     beta=0.70
     Davidson diagonalization with overlap
     ethr =  1.11E-07,  avg # of iterations =  2.0

     negative rho (up, down):  0.362E-02 0.000E+00

     total cpu time spent up to now is        4.9 secs

     End of self-consistent calculation

          k = 0.0000 0.0000 0.0000 (  4193 PWs)   bands (ev):

   -20.8607 -11.0265 -10.2271  -6.2451

!    total energy              =     -23.44137106 Ry
     Harris-Foulkes estimate   =     -23.44137150 Ry
     estimated scf accuracy    <       0.00000092 Ry

     convergence has been achieved in   4 iterations

     Forces acting on atoms (Ry/au):

     atom    1 type  1   force =    -0.03189605   -0.03857985    0.03997214
     atom    2 type  2   force =     0.01921485    0.01714344   -0.00810063
     atom    3 type  2   force =    -0.01456684    0.03857464   -0.02631700
     atom    4 type  2   force =     0.02708877   -0.01737038   -0.00553486

     Total force =     0.091056     Total SCF correction =     0.001636

     Entering Dynamics:    iteration =     4
                           time      =   0.0039 pico-seconds


ATOMIC_POSITIONS (angstrom)
N        4.453288442   4.429035571   4.131003461
H        3.941620061   4.408315005   5.050354525
H        4.763606938   3.389595169   4.093945235
H        3.629746845   4.527353619   3.476114573


     kinetic energy (Ekin) =     0.01258016 Ry
     temperature           =   441.38841724 K 
     Ekin + Etot (const)   =   -23.42879090 Ry
     Message from routine dynamics:
     Total linear momentum <> 0

     Linear momentum :    0.0465721952    0.4553926351    0.2951300826

     Writing output data file ms2.save
     Check: negative starting charge=   -0.000538
     NEW-OLD atomic charge density approx. for the potential
     Check: negative starting charge=   -0.000525

     negative rho (up, down):  0.365E-02 0.000E+00

     total cpu time spent up to now is        5.4 secs

     per-process dynamical memory:    13.6 Mb

     Self-consistent Calculation

     iteration #  1     ecut=    25.00 Ry     beta=0.70
     Davidson diagonalization with overlap
     ethr =  1.00E-06,  avg # of iterations =  5.0

     negative rho (up, down):  0.352E-02 0.000E+00

     total cpu time spent up to now is        5.6 secs

     total energy              =     -23.43947118 Ry
     Harris-Foulkes estimate   =     -23.44019878 Ry
     estimated scf accuracy    <       0.00115761 Ry

     iteration #  2     ecut=    25.00 Ry     beta=0.70
     Davidson diagonalization with overlap
     ethr =  1.45E-05,  avg # of iterations =  2.0

     negative rho (up, down):  0.358E-02 0.000E+00

     total cpu time spent up to now is        5.7 secs

     total energy              =     -23.43971680 Ry
     Harris-Foulkes estimate   =     -23.44019609 Ry
     estimated scf accuracy    <       0.00098872 Ry

     iteration #  3     ecut=    25.00 Ry     beta=0.70
     Davidson diagonalization with overlap
     ethr =  1.24E-05,  avg # of iterations =  2.0

     negative rho (up, down):  0.359E-02 0.000E+00

     total cpu time spent up to now is        5.9 secs

     total energy              =     -23.43992257 Ry
     Harris-Foulkes estimate   =     -23.43992142 Ry
     estimated scf accuracy    <       0.00000714 Ry

     iteration #  4     ecut=    25.00 Ry     beta=0.70
     Davidson diagonalization with overlap
     ethr =  8.93E-08,  avg # of iterations =  2.0

     negative rho (up, down):  0.359E-02 0.000E+00

     total cpu time spent up to now is        6.0 secs

     End of self-consistent calculation

          k = 0.0000 0.0000 0.0000 (  4193 PWs)   bands (ev):

   -20.7025 -10.7558 -10.2772  -6.2710

!    total energy              =     -23.43992439 Ry
     Harris-Foulkes estimate   =     -23.43992467 Ry
     estimated scf accuracy    <       0.00000063 Ry

     convergence has been achieved in   4 iterations

     Forces acting on atoms (Ry/au):

     atom    1 type  1   force =    -0.03808625   -0.06812269    0.02274740
     atom    2 type  2   force =     0.02112327    0.01261852   -0.01922373
     atom    3 type  2   force =    -0.02112010    0.06811734   -0.01539399
     atom    4 type  2   force =     0.03793857   -0.01285318    0.01186561

     Total force =     0.121046     Total SCF correction =     0.001232

     Entering Dynamics:    iteration =     5
                           time      =   0.0048 pico-seconds


ATOMIC_POSITIONS (angstrom)
N        4.454705409   4.440997016   4.141286531
H        3.947499533   4.426806817   5.066146143
H        4.754162245   3.386292798   4.076440847
H        3.632728601   4.507649329   3.465788236


     kinetic energy (Ekin) =     0.01250975 Ry
     temperature           =   438.91801287 K 
     Ekin + Etot (const)   =   -23.42741464 Ry
     Message from routine dynamics:
     Total linear momentum <> 0

     Linear momentum :    0.0522643488    0.4423172742    0.3579280431

     Writing output data file ms2.save
     Check: negative starting charge=   -0.000525
     NEW-OLD atomic charge density approx. for the potential
     Check: negative starting charge=   -0.000519

     negative rho (up, down):  0.364E-02 0.000E+00

     total cpu time spent up to now is        6.5 secs

     per-process dynamical memory:    13.6 Mb

     Self-consistent Calculation

     iteration #  1     ecut=    25.00 Ry     beta=0.70
     Davidson diagonalization with overlap
     ethr =  1.00E-06,  avg # of iterations =  4.0

     negative rho (up, down):  0.353E-02 0.000E+00

     total cpu time spent up to now is        6.7 secs

     total energy              =     -23.43874036 Ry
     Harris-Foulkes estimate   =     -23.43888056 Ry
     estimated scf accuracy    <       0.00033509 Ry

     iteration #  2     ecut=    25.00 Ry     beta=0.70
     Davidson diagonalization with overlap
     ethr =  4.19E-06,  avg # of iterations =  2.0

     negative rho (up, down):  0.357E-02 0.000E+00

     total cpu time spent up to now is        6.8 secs

     total energy              =     -23.43879856 Ry
     Harris-Foulkes estimate   =     -23.43891620 Ry
     estimated scf accuracy    <       0.00024510 Ry

     iteration #  3     ecut=    25.00 Ry     beta=0.70
     Davidson diagonalization with overlap
     ethr =  3.06E-06,  avg # of iterations =  2.0

     negative rho (up, down):  0.357E-02 0.000E+00

     total cpu time spent up to now is        7.0 secs

     total energy              =     -23.43885399 Ry
     Harris-Foulkes estimate   =     -23.43885305 Ry
     estimated scf accuracy    <       0.00000562 Ry

     iteration #  4     ecut=    25.00 Ry     beta=0.70
     Davidson diagonalization with overlap
     ethr =  7.02E-08,  avg # of iterations =  2.0

     negative rho (up, down):  0.357E-02 0.000E+00

     total cpu time spent up to now is        7.1 secs

     End of self-consistent calculation

          k = 0.0000 0.0000 0.0000 (  4193 PWs)   bands (ev):

   -20.6339 -10.5594 -10.3561  -6.3010

!    total energy              =     -23.43885473 Ry
     Harris-Foulkes estimate   =     -23.43885480 Ry
     estimated scf accuracy    <       0.00000021 Ry

     convergence has been achieved in   4 iterations

     Forces acting on atoms (Ry/au):

     atom    1 type  1   force =    -0.04256851   -0.08363079    0.00564831
     atom    2 type  2   force =     0.02043500    0.00872857   -0.02536533
     atom    3 type  2   force =    -0.01965889    0.07944250   -0.00411556
     atom    4 type  2   force =     0.04162196   -0.00477281    0.02382910

     Total force =     0.137887     Total SCF correction =     0.000544

     Entering Dynamics:    iteration =     6
                           time      =   0.0058 pico-seconds


ATOMIC_POSITIONS (angstrom)
N        4.455758567   4.450059063   4.151776294
H        3.955298247   4.442567467   5.077568388
H        4.737532957   3.397988255   4.060185750
H        3.642334692   4.482395065   3.462240953


     kinetic energy (Ekin) =     0.01156250 Ry
     temperature           =   405.68266269 K 
     Ekin + Etot (const)   =   -23.42729223 Ry
     Message from routine dynamics:
     Total linear momentum <> 0

     Linear momentum :    0.0421545020    0.3504882056    0.3757982319

     Writing output data file ms2.save
     Check: negative starting charge=   -0.000519
     NEW-OLD atomic charge density approx. for the potential
     Check: negative starting charge=   -0.000516

     negative rho (up, down):  0.364E-02 0.000E+00

     total cpu time spent up to now is        7.6 secs

     per-process dynamical memory:    13.6 Mb

     Self-consistent Calculation

     iteration #  1     ecut=    25.00 Ry     beta=0.70
     Davidson diagonalization with overlap
     ethr =  1.00E-06,  avg # of iterations =  4.0

     negative rho (up, down):  0.357E-02 0.000E+00

     total cpu time spent up to now is        7.8 secs

     total energy              =     -23.43991812 Ry
     Harris-Foulkes estimate   =     -23.43988953 Ry
     estimated scf accuracy    <       0.00011973 Ry

     iteration #  2     ecut=    25.00 Ry     beta=0.70
     Davidson diagonalization with overlap
     ethr =  1.50E-06,  avg # of iterations =  2.0

     negative rho (up, down):  0.357E-02 0.000E+00

     total cpu time spent up to now is        7.9 secs

     total energy              =     -23.43992571 Ry
     Harris-Foulkes estimate   =     -23.43993393 Ry
     estimated scf accuracy    <       0.00002728 Ry

     iteration #  3     ecut=    25.00 Ry     beta=0.70
     Davidson diagonalization with overlap
     ethr =  3.41E-07,  avg # of iterations =  2.0

     negative rho (up, down):  0.358E-02 0.000E+00

     total cpu time spent up to now is        8.1 secs

     total energy              =     -23.43993244 Ry
     Harris-Foulkes estimate   =     -23.43993652 Ry
     estimated scf accuracy    <       0.00001212 Ry

     iteration #  4     ecut=    25.00 Ry     beta=0.70
     Davidson diagonalization with overlap
     ethr =  1.51E-07,  avg # of iterations =  2.0

     negative rho (up, down):  0.358E-02 0.000E+00

     total cpu time spent up to now is        8.2 secs

     End of self-consistent calculation

          k = 0.0000 0.0000 0.0000 (  4193 PWs)   bands (ev):

   -20.6710 -10.5793 -10.3391  -6.3316

!    total energy              =     -23.43993452 Ry
     Harris-Foulkes estimate   =     -23.43993452 Ry
     estimated scf accuracy    <       0.00000002 Ry

     convergence has been achieved in   4 iterations

     Forces acting on atoms (Ry/au):

     atom    1 type  1   force =    -0.04344810   -0.08537301   -0.00908372
     atom    2 type  2   force =     0.01719699    0.00589974   -0.02555770
     atom    3 type  2   force =    -0.01099442    0.07334350    0.00610555
     atom    4 type  2   force =     0.03723977    0.00612186    0.02855111

     Total force =     0.134236     Total SCF correction =     0.000167

     Entering Dynamics:    iteration =     7
                           time      =   0.0068 pico-seconds


ATOMIC_POSITIONS (angstrom)
N        4.456204984   4.455281555   4.161248122
H        3.963974568   4.454014651   5.083621054
H        4.715523103   3.422263872   4.046689896
H        3.657244948   4.453416262   3.465677997


     kinetic energy (Ekin) =     0.01190775 Ry
     temperature           =   417.79611767 K 
     Ekin + Etot (const)   =   -23.42802677 Ry
     Message from routine dynamics:
     Total linear momentum <> 0

     Linear momentum :    0.0212840231    0.2169712552    0.3490752559

     Writing output data file ms2.save
     Check: negative starting charge=   -0.000516
     NEW-OLD atomic charge density approx. for the potential
     Check: negative starting charge=   -0.000524

     negative rho (up, down):  0.366E-02 0.000E+00

     total cpu time spent up to now is        8.7 secs

     per-process dynamical memory:    13.6 Mb

     Self-consistent Calculation

     iteration #  1     ecut=    25.00 Ry     beta=0.70
     Davidson diagonalization with overlap
     ethr =  1.00E-06,  avg # of iterations =  4.0

     negative rho (up, down):  0.363E-02 0.000E+00

     total cpu time spent up to now is        8.9 secs

     total energy              =     -23.44181189 Ry
     Harris-Foulkes estimate   =     -23.44213894 Ry
     estimated scf accuracy    <       0.00065728 Ry

     iteration #  2     ecut=    25.00 Ry     beta=0.70
     Davidson diagonalization with overlap
     ethr =  8.22E-06,  avg # of iterations =  2.0

     negative rho (up, down):  0.361E-02 0.000E+00

     total cpu time spent up to now is        9.0 secs

     total energy              =     -23.44193042 Ry
     Harris-Foulkes estimate   =     -23.44217122 Ry
     estimated scf accuracy    <       0.00049443 Ry

     iteration #  3     ecut=    25.00 Ry     beta=0.70
     Davidson diagonalization with overlap
     ethr =  6.18E-06,  avg # of iterations =  2.0

     negative rho (up, down):  0.360E-02 0.000E+00

     total cpu time spent up to now is        9.2 secs

     total energy              =     -23.44203998 Ry
     Harris-Foulkes estimate   =     -23.44203894 Ry
     estimated scf accuracy    <       0.00000872 Ry

     iteration #  4     ecut=    25.00 Ry     beta=0.70
     Davidson diagonalization with overlap
     ethr =  1.09E-07,  avg # of iterations =  2.0

     negative rho (up, down):  0.361E-02 0.000E+00

     total cpu time spent up to now is        9.3 secs

     End of self-consistent calculation

          k = 0.0000 0.0000 0.0000 (  4193 PWs)   bands (ev):

   -20.8124 -10.7627 -10.2679  -6.3631

!    total energy              =     -23.44204121 Ry
     Harris-Foulkes estimate   =     -23.44204143 Ry
     estimated scf accuracy    <       0.00000042 Ry

     convergence has been achieved in   4 iterations

     Forces acting on atoms (Ry/au):

     atom    1 type  1   force =    -0.04090731   -0.07226411   -0.01920663
     atom    2 type  2   force =     0.01195912    0.00436602   -0.02010080
     atom    3 type  2   force =     0.00406168    0.04952187    0.01394118
     atom    4 type  2   force =     0.02500604    0.01858485    0.02536189

     Total force =     0.110035     Total SCF correction =     0.000886

     Entering Dynamics:    iteration =     8
                           time      =   0.0077 pico-seconds


ATOMIC_POSITIONS (angstrom)
N        4.456073782   4.456764255   4.168692373
H        3.972188157   4.460671840   5.084848140
H        4.691689333   3.453110948   4.037011639
H        3.674387968   4.423715691   3.474482958


     kinetic energy (Ekin) =     0.01289219 Ry
     temperature           =   452.33643300 K 
     Ekin + Etot (const)   =   -23.42914902 Ry
     Message from routine dynamics:
     Total linear momentum <> 0

     Linear momentum :   -0.0008196608    0.0777160762    0.2839357216

     Writing output data file ms2.save
     Check: negative starting charge=   -0.000524
     NEW-OLD atomic charge density approx. for the potential
     Check: negative starting charge=   -0.000541

     negative rho (up, down):  0.370E-02 0.000E+00

     total cpu time spent up to now is        9.8 secs

     per-process dynamical memory:    13.6 Mb

     Self-consistent Calculation

     iteration #  1     ecut=    25.00 Ry     beta=0.70
     Davidson diagonalization with overlap
     ethr =  1.00E-06,  avg # of iterations =  5.0

     negative rho (up, down):  0.370E-02 0.000E+00

     total cpu time spent up to now is        9.9 secs

     total energy              =     -23.44147989 Ry
     Harris-Foulkes estimate   =     -23.44230916 Ry
     estimated scf accuracy    <       0.00138845 Ry

     iteration #  2     ecut=    25.00 Ry     beta=0.70
     Davidson diagonalization with overlap
     ethr =  1.74E-05,  avg # of iterations =  2.0

     negative rho (up, down):  0.366E-02 0.000E+00

     total cpu time spent up to now is       10.1 secs

     total energy              =     -23.44176056 Ry
     Harris-Foulkes estimate   =     -23.44228806 Ry
     estimated scf accuracy    <       0.00107017 Ry

     iteration #  3     ecut=    25.00 Ry     beta=0.70
     Davidson diagonalization with overlap
     ethr =  1.34E-05,  avg # of iterations =  2.0

     negative rho (up, down):  0.365E-02 0.000E+00

     total cpu time spent up to now is       10.3 secs

     total energy              =     -23.44199035 Ry
     Harris-Foulkes estimate   =     -23.44198953 Ry
     estimated scf accuracy    <       0.00001133 Ry

     iteration #  4     ecut=    25.00 Ry     beta=0.70
     Davidson diagonalization with overlap
     ethr =  1.42E-07,  avg # of iterations =  2.0

     negative rho (up, down):  0.366E-02 0.000E+00

     total cpu time spent up to now is       10.4 secs

     End of self-consistent calculation

          k = 0.0000 0.0000 0.0000 (  4193 PWs)   bands (ev):

   -21.0316 -10.9786 -10.2323  -6.3945

!    total energy              =     -23.44199251 Ry
     Harris-Foulkes estimate   =     -23.44199287 Ry
     estimated scf accuracy    <       0.00000073 Ry

     convergence has been achieved in   4 iterations

     Forces acting on atoms (Ry/au):

     atom    1 type  1   force =    -0.03588905   -0.04330534   -0.02263265
     atom    2 type  2   force =     0.00568592    0.00403150   -0.01062873
     atom    3 type  2   force =     0.02387195    0.00856851    0.01821577
     atom    4 type  2   force =     0.00646305    0.03092127    0.01505863

     Total force =     0.077698     Total SCF correction =     0.001351

     Entering Dynamics:    iteration =     9
                           time      =   0.0087 pico-seconds


ATOMIC_POSITIONS (angstrom)
N        4.455646964   4.455740444   4.173479535
H        3.978537989   4.463225345   5.083065630
H        4.670963175   3.481127866   4.031602504
H        3.689321474   4.397128733   3.485533404


     kinetic energy (Ekin) =     0.01166816 Ry
     temperature           =   409.38989569 K 
     Ekin + Etot (const)   =   -23.43032435 Ry
     Message from routine dynamics:
     Total linear momentum <> 0

     Linear momentum :   -0.0146991719   -0.0280151204    0.1925277940

     Writing output data file ms2.save
     Check: negative starting charge=   -0.000541
     NEW-OLD atomic charge density approx. for the potential
     Check: negative starting charge=   -0.000546

     negative rho (up, down):  0.374E-02 0.000E+00

     total cpu time spent up to now is       10.9 secs

     per-process dynamical memory:    13.6 Mb

     Self-consistent Calculation

     iteration #  1     ecut=    25.00 Ry     beta=0.70
     Davidson diagonalization with overlap
     ethr =  1.00E-06,  avg # of iterations =  4.0

     negative rho (up, down):  0.375E-02 0.000E+00

     total cpu time spent up to now is       11.0 secs

     total energy              =     -23.43741072 Ry
     Harris-Foulkes estimate   =     -23.43831112 Ry
     estimated scf accuracy    <       0.00144381 Ry

     iteration #  2     ecut=    25.00 Ry     beta=0.70
     Davidson diagonalization with overlap
     ethr =  1.80E-05,  avg # of iterations =  2.0

     negative rho (up, down):  0.371E-02 0.000E+00

     total cpu time spent up to now is       11.2 secs

     total energy              =     -23.43772158 Ry
     Harris-Foulkes estimate   =     -23.43824177 Ry
     estimated scf accuracy    <       0.00103944 Ry

     iteration #  3     ecut=    25.00 Ry     beta=0.70
     Davidson diagonalization with overlap
     ethr =  1.30E-05,  avg # of iterations =  2.0

     negative rho (up, down):  0.369E-02 0.000E+00

     total cpu time spent up to now is       11.4 secs

     total energy              =     -23.43794484 Ry
     Harris-Foulkes estimate   =     -23.43794451 Ry
     estimated scf accuracy    <       0.00000992 Ry

     iteration #  4     ecut=    25.00 Ry     beta=0.70
     Davidson diagonalization with overlap
     ethr =  1.24E-07,  avg # of iterations =  2.0

     negative rho (up, down):  0.370E-02 0.000E+00

     total cpu time spent up to now is       11.5 secs

     End of self-consistent calculation

          k = 0.0000 0.0000 0.0000 (  4193 PWs)   bands (ev):

   -21.2673 -11.1709 -10.2190  -6.4254

!    total energy              =     -23.43794693 Ry
     Harris-Foulkes estimate   =     -23.43794727 Ry
     estimated scf accuracy    <       0.00000069 Ry

     convergence has been achieved in   4 iterations

     Forces acting on atoms (Ry/au):

     atom    1 type  1   force =    -0.03008501   -0.00544103   -0.01960462
     atom    2 type  2   force =    -0.00000468    0.00453222   -0.00036998
     atom    3 type  2   force =     0.04402915   -0.03988557    0.01885513
     atom    4 type  2   force =    -0.01383582    0.04098765    0.00116630

     Total force =     0.084246     Total SCF correction =     0.001399

     Entering Dynamics:    iteration =    10
                           time      =   0.0097 pico-seconds


ATOMIC_POSITIONS (angstrom)
N        4.455372058   4.454523616   4.175473519
H        3.981902485   4.463495371   5.080681609
H        4.658564782   3.495838461   4.030397768
H        3.697272964   4.377859385   3.495159037


     kinetic energy (Ekin) =     0.00663396 Ry
     temperature           =   232.75969627 K 
     Ekin + Etot (const)   =   -23.43131297 Ry
     Message from routine dynamics:
     Total linear momentum <> 0

     Linear momentum :   -0.0134118170   -0.0579904584    0.0923155168

     Writing output data file ms2.save
     Check: negative starting charge=   -0.000546
     NEW-OLD atomic charge density approx. for the potential
     Check: negative starting charge=   -0.000550

     negative rho (up, down):  0.377E-02 0.000E+00

     total cpu time spent up to now is       12.0 secs

     per-process dynamical memory:    13.6 Mb

     Self-consistent Calculation

     iteration #  1     ecut=    25.00 Ry     beta=0.70
     Davidson diagonalization with overlap
     ethr =  1.00E-06,  avg # of iterations =  4.0

     negative rho (up, down):  0.378E-02 0.000E+00

     total cpu time spent up to now is       12.1 secs

     total energy              =     -23.43304659 Ry
     Harris-Foulkes estimate   =     -23.43337214 Ry
     estimated scf accuracy    <       0.00052785 Ry

     iteration #  2     ecut=    25.00 Ry     beta=0.70
     Davidson diagonalization with overlap
     ethr =  6.60E-06,  avg # of iterations =  2.0

     negative rho (up, down):  0.375E-02 0.000E+00

     total cpu time spent up to now is       12.3 secs

     total energy              =     -23.43316090 Ry
     Harris-Foulkes estimate   =     -23.43334606 Ry
     estimated scf accuracy    <       0.00036813 Ry

     iteration #  3     ecut=    25.00 Ry     beta=0.70
     Davidson diagonalization with overlap
     ethr =  4.60E-06,  avg # of iterations =  2.0

     negative rho (up, down):  0.374E-02 0.000E+00

     total cpu time spent up to now is       12.5 secs

     total energy              =     -23.43324030 Ry
     Harris-Foulkes estimate   =     -23.43324010 Ry
     estimated scf accuracy    <       0.00000363 Ry

     iteration #  4     ecut=    25.00 Ry     beta=0.70
     Davidson diagonalization with overlap
     ethr =  4.54E-08,  avg # of iterations =  2.0

     negative rho (up, down):  0.374E-02 0.000E+00

     total cpu time spent up to now is       12.6 secs

     End of self-consistent calculation

          k = 0.0000 0.0000 0.0000 (  4193 PWs)   bands (ev):

   -21.4234 -11.2800 -10.2048  -6.4537

!    total energy              =     -23.43324103 Ry
     Harris-Foulkes estimate   =     -23.43324116 Ry
     estimated scf accuracy    <       0.00000025 Ry

     convergence has been achieved in   4 iterations

     Forces acting on atoms (Ry/au):

     atom    1 type  1   force =    -0.02495671    0.01934155   -0.01519012
     atom    2 type  2   force =    -0.00333141    0.00521879    0.00679526
     atom    3 type  2   force =     0.05666457   -0.07116137    0.01841152
     atom    4 type  2   force =    -0.02832318    0.04669719   -0.00997446

     Total force =     0.114054     Total SCF correction =     0.000859

     Entering Dynamics:    iteration =    11
                           time      =   0.0106 pico-seconds


ATOMIC_POSITIONS (angstrom)
N        4.455727613   4.455717763   4.174934928
H        3.981779615   4.463866718   5.079720571
H        4.657996249   3.491273316   4.033398335
H        3.694899180   4.369556333   3.500682842


     kinetic energy (Ekin) =     0.00131940 Ry
     temperature           =    46.29243775 K 
     Ekin + Etot (const)   =   -23.43192164 Ry
     Message from routine dynamics:
     Total linear momentum <> 0

     Linear momentum :    0.0051267206    0.0111913139    0.0002258347

     Writing output data file ms2.save
     Check: negative starting charge=   -0.000550
     NEW-OLD atomic charge density approx. for the potential
     Check: negative starting charge=   -0.000550

     negative rho (up, down):  0.377E-02 0.000E+00

     total cpu time spent up to now is       13.0 secs

     per-process dynamical memory:    13.6 Mb

     Self-consistent Calculation

     iteration #  1     ecut=    25.00 Ry     beta=0.70
     Davidson diagonalization with overlap
     ethr =  1.00E-06,  avg # of iterations =  3.0

     negative rho (up, down):  0.373E-02 0.000E+00

     total cpu time spent up to now is       13.2 secs

     total energy              =     -23.43326427 Ry
     Harris-Foulkes estimate   =     -23.43328442 Ry
     estimated scf accuracy    <       0.00003756 Ry

     iteration #  2     ecut=    25.00 Ry     beta=0.70
     Davidson diagonalization with overlap
     ethr =  4.69E-07,  avg # of iterations =  2.0

     negative rho (up, down):  0.374E-02 0.000E+00

     total cpu time spent up to now is       13.4 secs

     total energy              =     -23.43327138 Ry
     Harris-Foulkes estimate   =     -23.43327989 Ry
     estimated scf accuracy    <       0.00001622 Ry

     iteration #  3     ecut=    25.00 Ry     beta=0.70
     Davidson diagonalization with overlap
     ethr =  2.03E-07,  avg # of iterations =  2.0

     negative rho (up, down):  0.373E-02 0.000E+00

     total cpu time spent up to now is       13.5 secs

     End of self-consistent calculation

          k = 0.0000 0.0000 0.0000 (  4193 PWs)   bands (ev):

   -21.4183 -11.2604 -10.1732  -6.4736

!    total energy              =     -23.43327508 Ry
     Harris-Foulkes estimate   =     -23.43327550 Ry
     estimated scf accuracy    <       0.00000080 Ry

     convergence has been achieved in   3 iterations

     Forces acting on atoms (Ry/au):

     atom    1 type  1   force =    -0.02242030    0.00946358   -0.01540817
     atom    2 type  2   force =    -0.00304406    0.00556529    0.00797818
     atom    3 type  2   force =     0.05530704   -0.06202296    0.01977885
     atom    4 type  2   force =    -0.02992133    0.04701541   -0.01237834

     Total force =     0.107189     Total SCF correction =     0.000549

     Entering Dynamics:    iteration =    12
                           time      =   0.0116 pico-seconds


ATOMIC_POSITIONS (angstrom)
N        4.457095795   4.460561223   4.172126704
H        3.978518923   4.465898830   5.080802492
H        4.669308335   3.470694548   4.041129428
H        3.682004242   4.373785176   3.501652432


     kinetic energy (Ekin) =     0.00147146 Ry
     temperature           =    51.62786872 K 
     Ekin + Etot (const)   =   -23.43180362 Ry
     Message from routine dynamics:
     Total linear momentum <> 0

     Linear momentum :    0.0387513988    0.1449239469   -0.0799729282

     Writing output data file ms2.save
     Check: negative starting charge=   -0.000550
     NEW-OLD atomic charge density approx. for the potential
     Check: negative starting charge=   -0.000544

     negative rho (up, down):  0.373E-02 0.000E+00

     total cpu time spent up to now is       14.0 secs

     per-process dynamical memory:    13.6 Mb

     Self-consistent Calculation

     iteration #  1     ecut=    25.00 Ry     beta=0.70
     Davidson diagonalization with overlap
     ethr =  1.00E-06,  avg # of iterations =  4.0

     negative rho (up, down):  0.365E-02 0.000E+00

     total cpu time spent up to now is       14.1 secs

     total energy              =     -23.43673725 Ry
     Harris-Foulkes estimate   =     -23.43728929 Ry
     estimated scf accuracy    <       0.00084246 Ry

     iteration #  2     ecut=    25.00 Ry     beta=0.70
     Davidson diagonalization with overlap
     ethr =  1.05E-05,  avg # of iterations =  2.0

     negative rho (up, down):  0.368E-02 0.000E+00

     total cpu time spent up to now is       14.3 secs

     total energy              =     -23.43692135 Ry
     Harris-Foulkes estimate   =     -23.43722107 Ry
     estimated scf accuracy    <       0.00059485 Ry

     iteration #  3     ecut=    25.00 Ry     beta=0.70
     Davidson diagonalization with overlap
     ethr =  7.44E-06,  avg # of iterations =  2.0

     negative rho (up, down):  0.368E-02 0.000E+00

     total cpu time spent up to now is       14.5 secs

     total energy              =     -23.43704845 Ry
     Harris-Foulkes estimate   =     -23.43704890 Ry
     estimated scf accuracy    <       0.00000521 Ry

     iteration #  4     ecut=    25.00 Ry     beta=0.70
     Davidson diagonalization with overlap
     ethr =  6.51E-08,  avg # of iterations =  2.0

     negative rho (up, down):  0.368E-02 0.000E+00

     total cpu time spent up to now is       14.6 secs

     End of self-consistent calculation

          k = 0.0000 0.0000 0.0000 (  4193 PWs)   bands (ev):

   -21.2691 -11.1241 -10.1395  -6.4951

!    total energy              =     -23.43704966 Ry
     Harris-Foulkes estimate   =     -23.43704983 Ry
     estimated scf accuracy    <       0.00000037 Ry

     convergence has been achieved in   4 iterations

     Forces acting on atoms (Ry/au):

     atom    1 type  1   force =    -0.02567832   -0.02887693   -0.01882857
     atom    2 type  2   force =     0.00123875    0.00558430    0.00229986
     atom    3 type  2   force =     0.04158171   -0.01938245    0.02147548
     atom    4 type  2   force =    -0.01726165    0.04245051   -0.00495392

     Total force =     0.081094     Total SCF correction =     0.001034

     Entering Dynamics:    iteration =    13
                           time      =   0.0126 pico-seconds


ATOMIC_POSITIONS (angstrom)
N        4.459592634   4.467770858   4.166986600
H        3.973309561   4.469085969   5.082565538
H        4.689288479   3.444111828   4.054008933
H        3.661842859   4.388909719   3.499835305


     kinetic energy (Ekin) =     0.00654432 Ry
     temperature           =   229.61453937 K 
     Ekin + Etot (const)   =   -23.43050534 Ry
     Message from routine dynamics:
     Total linear momentum <> 0

     Linear momentum :    0.0801563052    0.2514140516   -0.1602840474

     Writing output data file ms2.save
     Check: negative starting charge=   -0.000544
     NEW-OLD atomic charge density approx. for the potential
     Check: negative starting charge=   -0.000539

     negative rho (up, down):  0.367E-02 0.000E+00

     total cpu time spent up to now is       15.1 secs

     per-process dynamical memory:    13.6 Mb

     Self-consistent Calculation

     iteration #  1     ecut=    25.00 Ry     beta=0.70
     Davidson diagonalization with overlap
     ethr =  1.00E-06,  avg # of iterations =  5.0

     negative rho (up, down):  0.357E-02 0.000E+00

     total cpu time spent up to now is       15.2 secs

     total energy              =     -23.43853402 Ry
     Harris-Foulkes estimate   =     -23.43966393 Ry
     estimated scf accuracy    <       0.00173222 Ry

     iteration #  2     ecut=    25.00 Ry     beta=0.70
     Davidson diagonalization with overlap
     ethr =  2.17E-05,  avg # of iterations =  2.0

     negative rho (up, down):  0.363E-02 0.000E+00

     total cpu time spent up to now is       15.4 secs

     total energy              =     -23.43891080 Ry
     Harris-Foulkes estimate   =     -23.43959383 Ry
     estimated scf accuracy    <       0.00138534 Ry

     iteration #  3     ecut=    25.00 Ry     beta=0.70
     Davidson diagonalization with overlap
     ethr =  1.73E-05,  avg # of iterations =  2.0

     negative rho (up, down):  0.364E-02 0.000E+00

     total cpu time spent up to now is       15.6 secs

     total energy              =     -23.43919985 Ry
     Harris-Foulkes estimate   =     -23.43919954 Ry
     estimated scf accuracy    <       0.00000945 Ry

     iteration #  4     ecut=    25.00 Ry     beta=0.70
     Davidson diagonalization with overlap
     ethr =  1.18E-07,  avg # of iterations =  2.0

     negative rho (up, down):  0.363E-02 0.000E+00

     total cpu time spent up to now is       15.7 secs

     End of self-consistent calculation

          k = 0.0000 0.0000 0.0000 (  4193 PWs)   bands (ev):

   -21.0479 -10.9075 -10.1174  -6.5078

!    total energy              =     -23.43920232 Ry
     Harris-Foulkes estimate   =     -23.43920278 Ry
     estimated scf accuracy    <       0.00000088 Ry

     convergence has been achieved in   4 iterations

     Forces acting on atoms (Ry/au):

     atom    1 type  1   force =    -0.03470004   -0.06902440   -0.01913289
     atom    2 type  2   force =     0.00813093    0.00584580   -0.00738007
     atom    3 type  2   force =     0.02318600    0.02838444    0.01976694
     atom    4 type  2   force =     0.00321899    0.03454929    0.00676673

     Total force =     0.097330     Total SCF correction =     0.001596

     Entering Dynamics:    iteration =    14
                           time      =   0.0135 pico-seconds


ATOMIC_POSITIONS (angstrom)
N        4.462872829   4.474380531   4.159317164
H        3.967666042   4.471352973   5.082418152
H        4.713171376   3.421521826   4.071466413
H        3.639388960   4.410837828   3.497965553


     kinetic energy (Ekin) =     0.01072387 Ry
     temperature           =   376.25830206 K 
     Ekin + Etot (const)   =   -23.42847845 Ry
     Message from routine dynamics:
     Total linear momentum <> 0

     Linear momentum :    0.1131514174    0.2556366207   -0.2492716017

     Writing output data file ms2.save
     Check: negative starting charge=   -0.000539
     NEW-OLD atomic charge density approx. for the potential
     Check: negative starting charge=   -0.000526

     negative rho (up, down):  0.362E-02 0.000E+00

     total cpu time spent up to now is       16.2 secs

     per-process dynamical memory:    13.6 Mb

     Self-consistent Calculation

     iteration #  1     ecut=    25.00 Ry     beta=0.70
     Davidson diagonalization with overlap
     ethr =  1.00E-06,  avg # of iterations =  5.0

     negative rho (up, down):  0.353E-02 0.000E+00

     total cpu time spent up to now is       16.3 secs

     total energy              =     -23.43741985 Ry
     Harris-Foulkes estimate   =     -23.43833698 Ry
     estimated scf accuracy    <       0.00146010 Ry

     iteration #  2     ecut=    25.00 Ry     beta=0.70
     Davidson diagonalization with overlap
     ethr =  1.83E-05,  avg # of iterations =  2.0

     negative rho (up, down):  0.359E-02 0.000E+00

     total cpu time spent up to now is       16.5 secs

     total energy              =     -23.43772113 Ry
     Harris-Foulkes estimate   =     -23.43833533 Ry
     estimated scf accuracy    <       0.00126788 Ry

     iteration #  3     ecut=    25.00 Ry     beta=0.70
     Davidson diagonalization with overlap
     ethr =  1.58E-05,  avg # of iterations =  2.0

     negative rho (up, down):  0.359E-02 0.000E+00

     total cpu time spent up to now is       16.7 secs

     total energy              =     -23.43798420 Ry
     Harris-Foulkes estimate   =     -23.43798323 Ry
     estimated scf accuracy    <       0.00000929 Ry

     iteration #  4     ecut=    25.00 Ry     beta=0.70
     Davidson diagonalization with overlap
     ethr =  1.16E-07,  avg # of iterations =  2.0

     negative rho (up, down):  0.359E-02 0.000E+00

     total cpu time spent up to now is       16.8 secs

     End of self-consistent calculation

          k = 0.0000 0.0000 0.0000 (  4193 PWs)   bands (ev):

   -20.8457 -10.6708 -10.1351  -6.5147

!    total energy              =     -23.43798639 Ry
     Harris-Foulkes estimate   =     -23.43798680 Ry
     estimated scf accuracy    <       0.00000080 Ry

     convergence has been achieved in   4 iterations

     Forces acting on atoms (Ry/au):

     atom    1 type  1   force =    -0.04603356   -0.09511140   -0.01309104
     atom    2 type  2   force =     0.01571101    0.00692405   -0.01716111
     atom    3 type  2   force =     0.00635161    0.06311763    0.01368474
     atom    4 type  2   force =     0.02381350    0.02482925    0.01661174

     Total force =     0.132653     Total SCF correction =     0.001447

     Entering Dynamics:    iteration =    15
                           time      =   0.0145 pico-seconds


ATOMIC_POSITIONS (angstrom)
N        4.466202293   4.477565521   4.149216415
H        3.962946973   4.470708830   5.077903134
H        4.736265841   3.409445624   4.091991094
H        3.619343716   4.434908937   3.498504380


     kinetic energy (Ekin) =     0.01145460 Ry
     temperature           =   401.89689402 K 
     Ekin + Etot (const)   =   -23.42653179 Ry
     Message from routine dynamics:
     Total linear momentum <> 0

     Linear momentum :    0.1219882228    0.1521299658   -0.3386569510

     Writing output data file ms2.save
     Check: negative starting charge=   -0.000526
     NEW-OLD atomic charge density approx. for the potential
     Check: negative starting charge=   -0.000513

     negative rho (up, down):  0.358E-02 0.000E+00

     total cpu time spent up to now is       17.3 secs

     per-process dynamical memory:    13.6 Mb

     Self-consistent Calculation

     iteration #  1     ecut=    25.00 Ry     beta=0.70
     Davidson diagonalization with overlap
     ethr =  1.00E-06,  avg # of iterations =  5.0

     negative rho (up, down):  0.350E-02 0.000E+00

     total cpu time spent up to now is       17.4 secs

     total energy              =     -23.43553412 Ry
     Harris-Foulkes estimate   =     -23.43585602 Ry
     estimated scf accuracy    <       0.00060953 Ry

     iteration #  2     ecut=    25.00 Ry     beta=0.70
     Davidson diagonalization with overlap
     ethr =  7.62E-06,  avg # of iterations =  2.0

     negative rho (up, down):  0.355E-02 0.000E+00

     total cpu time spent up to now is       17.6 secs

     total energy              =     -23.43564424 Ry
     Harris-Foulkes estimate   =     -23.43588386 Ry
     estimated scf accuracy    <       0.00049514 Ry

     iteration #  3     ecut=    25.00 Ry     beta=0.70
     Davidson diagonalization with overlap
     ethr =  6.19E-06,  avg # of iterations =  2.0

     negative rho (up, down):  0.355E-02 0.000E+00

     total cpu time spent up to now is       17.8 secs

     total energy              =     -23.43575185 Ry
     Harris-Foulkes estimate   =     -23.43575113 Ry
     estimated scf accuracy    <       0.00000717 Ry

     iteration #  4     ecut=    25.00 Ry     beta=0.70
     Davidson diagonalization with overlap
     ethr =  8.97E-08,  avg # of iterations =  2.0

     negative rho (up, down):  0.355E-02 0.000E+00

     total cpu time spent up to now is       17.9 secs

     End of self-consistent calculation

          k = 0.0000 0.0000 0.0000 (  4193 PWs)   bands (ev):

   -20.7178 -10.4608 -10.2099  -6.5130

!    total energy              =     -23.43575297 Ry
     Harris-Foulkes estimate   =     -23.43575314 Ry
     estimated scf accuracy    <       0.00000038 Ry

     convergence has been achieved in   4 iterations

     Forces acting on atoms (Ry/au):

     atom    1 type  1   force =    -0.05554506   -0.10415416   -0.00167027
     atom    2 type  2   force =     0.02212838    0.00911701   -0.02352405
     atom    3 type  2   force =    -0.00599912    0.08025066    0.00441116
     atom    4 type  2   force =     0.03925851    0.01455597    0.02085577

     Total force =     0.154097     Total SCF correction =     0.000870

     Entering Dynamics:    iteration =    16
                           time      =   0.0155 pico-seconds


ATOMIC_POSITIONS (angstrom)
N        4.468737860   4.475619243   4.137243367
H        3.960090939   4.466240837   5.067769763
H        4.754877273   3.410660980   4.113621304
H        3.604974220   4.457120468   3.502866066


     kinetic energy (Ekin) =     0.01084570 Ry
     temperature           =   380.53289250 K 
     Ekin + Etot (const)   =   -23.42490727 Ry
     Message from routine dynamics:
     Total linear momentum <> 0

     Linear momentum :    0.1001736177   -0.0220963358   -0.4117141441

     Writing output data file ms2.save
     Check: negative starting charge=   -0.000513
     NEW-OLD atomic charge density approx. for the potential
     Check: negative starting charge=   -0.000513

     negative rho (up, down):  0.356E-02 0.000E+00

     total cpu time spent up to now is       18.3 secs

     per-process dynamical memory:    13.6 Mb

     Self-consistent Calculation

     iteration #  1     ecut=    25.00 Ry     beta=0.70
     Davidson diagonalization with overlap
     ethr =  1.00E-06,  avg # of iterations =  4.0

     negative rho (up, down):  0.351E-02 0.000E+00

     total cpu time spent up to now is       18.5 secs

     total energy              =     -23.43523773 Ry
     Harris-Foulkes estimate   =     -23.43521771 Ry
     estimated scf accuracy    <       0.00010851 Ry

     iteration #  2     ecut=    25.00 Ry     beta=0.70
     Davidson diagonalization with overlap
     ethr =  1.36E-06,  avg # of iterations =  1.0

     negative rho (up, down):  0.354E-02 0.000E+00

     total cpu time spent up to now is       18.7 secs

     total energy              =     -23.43524826 Ry
     Harris-Foulkes estimate   =     -23.43524518 Ry
     estimated scf accuracy    <       0.00000940 Ry

     iteration #  3     ecut=    25.00 Ry     beta=0.70
     Davidson diagonalization with overlap
     ethr =  1.18E-07,  avg # of iterations =  2.0

     negative rho (up, down):  0.355E-02 0.000E+00

     total cpu time spent up to now is       18.8 secs

     total energy              =     -23.43524944 Ry
     Harris-Foulkes estimate   =     -23.43525022 Ry
     estimated scf accuracy    <       0.00000187 Ry

     iteration #  4     ecut=    25.00 Ry     beta=0.70
     Davidson diagonalization with overlap
     ethr =  2.34E-08,  avg # of iterations =  2.0

     negative rho (up, down):  0.355E-02 0.000E+00

     total cpu time spent up to now is       19.0 secs

     End of self-consistent calculation

          k = 0.0000 0.0000 0.0000 (  4193 PWs)   bands (ev):

   -20.6916 -10.3958 -10.2631  -6.5019

!    total energy              =     -23.43524980 Ry
     Harris-Foulkes estimate   =     -23.43525002 Ry
     estimated scf accuracy    <       0.00000033 Ry

     convergence has been achieved in   4 iterations

     Forces acting on atoms (Ry/au):

     atom    1 type  1   force =    -0.06074308   -0.09744785    0.01260949
     atom    2 type  2   force =     0.02626431    0.01243906   -0.02465148
     atom    3 type  2   force =    -0.01271946    0.08033043   -0.00649960
     atom    4 type  2   force =     0.04728353    0.00473410    0.01846521

     Total force =     0.155091     Total SCF correction =     0.000392

     Entering Dynamics:    iteration =    17
                           time      =   0.0164 pico-seconds


ATOMIC_POSITIONS (angstrom)
N        4.469816194   4.468092511   4.124315619
H        3.959569691   4.458286166   5.052387623
H        4.766794751   3.424633445   4.134299022
H        3.597780247   4.474541755   3.511108906


     kinetic energy (Ekin) =     0.01167141 Ry
     temperature           =   409.50402991 K 
     Ekin + Etot (const)   =   -23.42357838 Ry
     Message from routine dynamics:
     Total linear momentum <> 0

     Linear momentum :    0.0524894457   -0.2219571141   -0.4543531975

     Writing output data file ms2.save
     Check: negative starting charge=   -0.000513
     NEW-OLD atomic charge density approx. for the potential
     Check: negative starting charge=   -0.000521

     negative rho (up, down):  0.359E-02 0.000E+00

     total cpu time spent up to now is       19.4 secs

     per-process dynamical memory:    13.6 Mb

     Self-consistent Calculation

     iteration #  1     ecut=    25.00 Ry     beta=0.70
     Davidson diagonalization with overlap
     ethr =  1.00E-06,  avg # of iterations =  5.0

     negative rho (up, down):  0.356E-02 0.000E+00

     total cpu time spent up to now is       19.6 secs

     total energy              =     -23.43688827 Ry
     Harris-Foulkes estimate   =     -23.43707374 Ry
     estimated scf accuracy    <       0.00039113 Ry

     iteration #  2     ecut=    25.00 Ry     beta=0.70
     Davidson diagonalization with overlap
     ethr =  4.89E-06,  avg # of iterations =  2.0

     negative rho (up, down):  0.357E-02 0.000E+00

     total cpu time spent up to now is       19.8 secs

     total energy              =     -23.43695674 Ry
     Harris-Foulkes estimate   =     -23.43709583 Ry
     estimated scf accuracy    <       0.00028573 Ry

     iteration #  3     ecut=    25.00 Ry     beta=0.70
     Davidson diagonalization with overlap
     ethr =  3.57E-06,  avg # of iterations =  2.0

     negative rho (up, down):  0.358E-02 0.000E+00

     total cpu time spent up to now is       19.9 secs

     total energy              =     -23.43702117 Ry
     Harris-Foulkes estimate   =     -23.43702095 Ry
     estimated scf accuracy    <       0.00000625 Ry

     iteration #  4     ecut=    25.00 Ry     beta=0.70
     Davidson diagonalization with overlap
     ethr =  7.81E-08,  avg # of iterations =  2.0

     negative rho (up, down):  0.359E-02 0.000E+00

     total cpu time spent up to now is       20.1 secs

     End of self-consistent calculation

          k = 0.0000 0.0000 0.0000 (  4193 PWs)   bands (ev):

   -20.7649 -10.6059 -10.1651  -6.4738

!    total energy              =     -23.43702220 Ry
     Harris-Foulkes estimate   =     -23.43702225 Ry
     estimated scf accuracy    <       0.00000028 Ry

     convergence has been achieved in   4 iterations

     Forces acting on atoms (Ry/au):

     atom    1 type  1   force =    -0.06109021   -0.07567164    0.02751084
     atom    2 type  2   force =     0.02729042    0.01671028   -0.01956930
     atom    3 type  2   force =    -0.01286034    0.06299545   -0.01753014
     atom    4 type  2   force =     0.04676640   -0.00382138    0.00957082

     Total force =     0.135486     Total SCF correction =     0.000875

     Entering Dynamics:    iteration =    18
                           time      =   0.0174 pico-seconds


ATOMIC_POSITIONS (angstrom)
N        4.469104863   4.455698369   4.111527705
H        3.961332907   4.448304952   5.033834635
H        4.771632299   3.447441174   4.152103585
H        3.597382084   4.485427709   3.521849446


     kinetic energy (Ekin) =     0.01430385 Ry
     temperature           =   501.86591975 K 
     Ekin + Etot (const)   =   -23.42271835 Ry
     Message from routine dynamics:
     Total linear momentum <> 0

     Linear momentum :   -0.0100641705   -0.4062267520   -0.4587430421

     Writing output data file ms2.save
     Check: negative starting charge=   -0.000521
     NEW-OLD atomic charge density approx. for the potential
     Check: negative starting charge=   -0.000537

     negative rho (up, down):  0.365E-02 0.000E+00

     total cpu time spent up to now is       20.5 secs

     per-process dynamical memory:    13.6 Mb

     Self-consistent Calculation

     iteration #  1     ecut=    25.00 Ry     beta=0.70
     Davidson diagonalization with overlap
     ethr =  1.00E-06,  avg # of iterations =  5.0

     negative rho (up, down):  0.363E-02 0.000E+00

     total cpu time spent up to now is       20.7 secs

     total energy              =     -23.43834973 Ry
     Harris-Foulkes estimate   =     -23.43919700 Ry
     estimated scf accuracy    <       0.00131883 Ry

     iteration #  2     ecut=    25.00 Ry     beta=0.70
     Davidson diagonalization with overlap
     ethr =  1.65E-05,  avg # of iterations =  2.0

     negative rho (up, down):  0.363E-02 0.000E+00

     total cpu time spent up to now is       20.9 secs

     total energy              =     -23.43863388 Ry
     Harris-Foulkes estimate   =     -23.43917550 Ry
     estimated scf accuracy    <       0.00111222 Ry

     iteration #  3     ecut=    25.00 Ry     beta=0.70
     Davidson diagonalization with overlap
     ethr =  1.39E-05,  avg # of iterations =  2.0

     negative rho (up, down):  0.364E-02 0.000E+00

     total cpu time spent up to now is       21.0 secs

     total energy              =     -23.43886553 Ry
     Harris-Foulkes estimate   =     -23.43886489 Ry
     estimated scf accuracy    <       0.00000767 Ry

     iteration #  4     ecut=    25.00 Ry     beta=0.70
     Davidson diagonalization with overlap
     ethr =  9.59E-08,  avg # of iterations =  2.0

     negative rho (up, down):  0.366E-02 0.000E+00

     total cpu time spent up to now is       21.1 secs

     End of self-consistent calculation

          k = 0.0000 0.0000 0.0000 (  4193 PWs)   bands (ev):

   -20.9295 -10.8892 -10.1114  -6.4398

!    total energy              =     -23.43886764 Ry
     Harris-Foulkes estimate   =     -23.43886796 Ry
     estimated scf accuracy    <       0.00000071 Ry

     convergence has been achieved in   4 iterations

     Forces acting on atoms (Ry/au):

     atom    1 type  1   force =    -0.05775772   -0.03872599    0.04074633
     atom    2 type  2   force =     0.02535063    0.02150709   -0.00938161
     atom    3 type  2   force =    -0.00563171    0.02781415   -0.02692201
     atom    4 type  2   force =     0.03812679   -0.01040006   -0.00447282

     Total force =     0.103928     Total SCF correction =     0.001505

     Entering Dynamics:    iteration =    19
                           time      =   0.0184 pico-seconds


ATOMIC_POSITIONS (angstrom)
N        4.466634643   4.440297792   4.099966993
H        3.964883898   4.438759115   5.015506286
H        4.771081741   3.471635237   4.165538134
H        3.601665858   4.489378483   3.532449986


     kinetic energy (Ekin) =     0.01610250 Ry
     temperature           =   564.97339457 K 
     Ekin + Etot (const)   =   -23.42276514 Ry
     Message from routine dynamics:
     Total linear momentum <> 0

     Linear momentum :   -0.0739622293   -0.5344999815   -0.4238229218

     Writing output data file ms2.save
     Check: negative starting charge=   -0.000537
     NEW-OLD atomic charge density approx. for the potential
     Check: negative starting charge=   -0.000550

     negative rho (up, down):  0.372E-02 0.000E+00

     total cpu time spent up to now is       21.6 secs

     per-process dynamical memory:    13.6 Mb

     Self-consistent Calculation

     iteration #  1     ecut=    25.00 Ry     beta=0.70
     Davidson diagonalization with overlap
     ethr =  1.00E-06,  avg # of iterations =  5.0

     negative rho (up, down):  0.371E-02 0.000E+00

     total cpu time spent up to now is       21.8 secs

     total energy              =     -23.43695427 Ry
     Harris-Foulkes estimate   =     -23.43827206 Ry
     estimated scf accuracy    <       0.00196299 Ry

     iteration #  2     ecut=    25.00 Ry     beta=0.70
     Davidson diagonalization with overlap
     ethr =  2.45E-05,  avg # of iterations =  2.0

     negative rho (up, down):  0.369E-02 0.000E+00

     total cpu time spent up to now is       22.0 secs

     total energy              =     -23.43739822 Ry
     Harris-Foulkes estimate   =     -23.43817730 Ry
     estimated scf accuracy    <       0.00158074 Ry

     iteration #  3     ecut=    25.00 Ry     beta=0.70
     Davidson diagonalization with overlap
     ethr =  1.98E-05,  avg # of iterations =  2.0

     negative rho (up, down):  0.370E-02 0.000E+00

     total cpu time spent up to now is       22.1 secs

     total energy              =     -23.43772643 Ry
     Harris-Foulkes estimate   =     -23.43772633 Ry
     estimated scf accuracy    <       0.00000905 Ry

     iteration #  4     ecut=    25.00 Ry     beta=0.70
     Davidson diagonalization with overlap
     ethr =  1.13E-07,  avg # of iterations =  2.0

     negative rho (up, down):  0.371E-02 0.000E+00

     total cpu time spent up to now is       22.2 secs

     End of self-consistent calculation

          k = 0.0000 0.0000 0.0000 (  4193 PWs)   bands (ev):

   -21.1380 -11.1888 -10.1020  -6.4015

!    total energy              =     -23.43772931 Ry
     Harris-Foulkes estimate   =     -23.43772981 Ry
     estimated scf accuracy    <       0.00000095 Ry

     convergence has been achieved in   4 iterations

     Forces acting on atoms (Ry/au):

     atom    1 type  1   force =    -0.05236484    0.01012482    0.05054787
     atom    2 type  2   force =     0.02130232    0.02606110    0.00335139
     atom    3 type  2   force =     0.00805752   -0.02136088   -0.03270956
     atom    4 type  2   force =     0.02308573   -0.01460971   -0.02123690

     Total force =     0.096604     Total SCF correction =     0.001872

     Entering Dynamics:    iteration =    20
                           time      =   0.0194 pico-seconds


ATOMIC_POSITIONS (angstrom)
N        4.462690844   4.424850909   4.090564111
H        3.969419216   4.432930135   5.001361785
H        4.768647245   3.487128452   4.173893997
H        3.607134352   4.487446087   3.539497973


     kinetic energy (Ekin) =     0.01360525 Ry
     temperature           =   477.35478673 K 
     Ekin + Etot (const)   =   -23.42412406 Ry
     Message from routine dynamics:
     Total linear momentum <> 0

     Linear momentum :   -0.1291950174   -0.5660002306   -0.3539716515

     Writing output data file ms2.save
     Check: negative starting charge=   -0.000550
     NEW-OLD atomic charge density approx. for the potential
     Check: negative starting charge=   -0.000553

     negative rho (up, down):  0.375E-02 0.000E+00

     total cpu time spent up to now is       22.7 secs

     per-process dynamical memory:    13.6 Mb

     Self-consistent Calculation

     iteration #  1     ecut=    25.00 Ry     beta=0.70
     Davidson diagonalization with overlap
     ethr =  1.00E-06,  avg # of iterations =  4.0

     negative rho (up, down):  0.376E-02 0.000E+00

     total cpu time spent up to now is       22.9 secs

     total energy              =     -23.43334520 Ry
     Harris-Foulkes estimate   =     -23.43430394 Ry
     estimated scf accuracy    <       0.00140735 Ry

     iteration #  2     ecut=    25.00 Ry     beta=0.70
     Davidson diagonalization with overlap
     ethr =  1.76E-05,  avg # of iterations =  2.0

     negative rho (up, down):  0.374E-02 0.000E+00

     total cpu time spent up to now is       23.1 secs

     total energy              =     -23.43367158 Ry
     Harris-Foulkes estimate   =     -23.43419877 Ry
     estimated scf accuracy    <       0.00105518 Ry

     iteration #  3     ecut=    25.00 Ry     beta=0.70
     Davidson diagonalization with overlap
     ethr =  1.32E-05,  avg # of iterations =  2.0

     negative rho (up, down):  0.374E-02 0.000E+00

     total cpu time spent up to now is       23.2 secs

     total energy              =     -23.43389237 Ry
     Harris-Foulkes estimate   =     -23.43389264 Ry
     estimated scf accuracy    <       0.00000603 Ry

     iteration #  4     ecut=    25.00 Ry     beta=0.70
     Davidson diagonalization with overlap
     ethr =  7.54E-08,  avg # of iterations =  2.0

     negative rho (up, down):  0.375E-02 0.000E+00

     total cpu time spent up to now is       23.3 secs

     End of self-consistent calculation

          k = 0.0000 0.0000 0.0000 (  4193 PWs)   bands (ev):

   -21.3119 -11.4297 -10.1218  -6.3628

!    total energy              =     -23.43389427 Ry
     Harris-Foulkes estimate   =     -23.43389459 Ry
     estimated scf accuracy    <       0.00000060 Ry

     convergence has been achieved in   4 iterations

     Forces acting on atoms (Ry/au):

     atom    1 type  1   force =    -0.04492633    0.05420593    0.05658659
     atom    2 type  2   force =     0.01696311    0.02919674    0.01431927
     atom    3 type  2   force =     0.02191165   -0.06646817   -0.03439633
     atom    4 type  2   force =     0.00610604   -0.01673311   -0.03654955

     Total force =     0.131295     Total SCF correction =     0.001511

     Entering Dynamics:    iteration =    21
                           time      =   0.0203 pico-seconds


ATOMIC_POSITIONS (angstrom)
N        4.457711797   4.412936588   4.083982170
H        3.974171410   4.434430567   4.994768457
H        4.768082998   3.485288224   4.177290165
H        3.609885210   4.481881960   3.539712394


     kinetic energy (Ekin) =     0.00721373 Ry
     temperature           =   253.10154524 K 
     Ekin + Etot (const)   =   -23.42668053 Ry
     Message from routine dynamics:
     Total linear momentum <> 0

     Linear momentum :   -0.1702718925   -0.4690390096   -0.2583526300

     Writing output data file ms2.save
     Check: negative starting charge=   -0.000553
     NEW-OLD atomic charge density approx. for the potential
     Check: negative starting charge=   -0.000555

     negative rho (up, down):  0.374E-02 0.000E+00

     total cpu time spent up to now is       23.8 secs

     per-process dynamical memory:    13.6 Mb

     Self-consistent Calculation

     iteration #  1     ecut=    25.00 Ry     beta=0.70
     Davidson diagonalization with overlap
     ethr =  1.00E-06,  avg # of iterations =  4.0

     negative rho (up, down):  0.376E-02 0.000E+00

     total cpu time spent up to now is       24.0 secs

     total energy              =     -23.43242788 Ry
     Harris-Foulkes estimate   =     -23.43259010 Ry
     estimated scf accuracy    <       0.00024739 Ry

     iteration #  2     ecut=    25.00 Ry     beta=0.70
     Davidson diagonalization with overlap
     ethr =  3.09E-06,  avg # of iterations =  2.0

     negative rho (up, down):  0.376E-02 0.000E+00

     total cpu time spent up to now is       24.1 secs

     total energy              =     -23.43248373 Ry
     Harris-Foulkes estimate   =     -23.43256794 Ry
     estimated scf accuracy    <       0.00016607 Ry

     iteration #  3     ecut=    25.00 Ry     beta=0.70
     Davidson diagonalization with overlap
     ethr =  2.08E-06,  avg # of iterations =  2.0

     negative rho (up, down):  0.376E-02 0.000E+00

     total cpu time spent up to now is       24.3 secs

     total energy              =     -23.43251937 Ry
     Harris-Foulkes estimate   =     -23.43251950 Ry
     estimated scf accuracy    <       0.00000144 Ry

     iteration #  4     ecut=    25.00 Ry     beta=0.70
     Davidson diagonalization with overlap
     ethr =  1.81E-08,  avg # of iterations =  2.0

     negative rho (up, down):  0.377E-02 0.000E+00

     total cpu time spent up to now is       24.4 secs

     End of self-consistent calculation

          k = 0.0000 0.0000 0.0000 (  4193 PWs)   bands (ev):

   -21.3648 -11.5310 -10.1527  -6.3251

!    total energy              =     -23.43251971 Ry
     Harris-Foulkes estimate   =     -23.43251975 Ry
     estimated scf accuracy    <       0.00000010 Ry

     convergence has been achieved in   4 iterations

     Forces acting on atoms (Ry/au):

     atom    1 type  1   force =    -0.03363016    0.06639625    0.06044675
     atom    2 type  2   force =     0.01447855    0.02964781    0.01872701
     atom    3 type  2   force =     0.02482758   -0.07818243   -0.03432337
     atom    4 type  2   force =    -0.00565013   -0.01777583   -0.04486189

     Total force =     0.144569     Total SCF correction =     0.000525

     Entering Dynamics:    iteration =    22
                           time      =   0.0213 pico-seconds


ATOMIC_POSITIONS (angstrom)
N        4.452311733   4.407318890   4.080626823
H        3.978943135   4.445944450   4.997286348
H        4.770684041   3.465249124   4.176088498
H        3.607370098   4.474948343   3.531293130


     kinetic energy (Ekin) =     0.00301910 Ry
     temperature           =   105.92836083 K 
     Ekin + Etot (const)   =   -23.42950061 Ry
     Message from routine dynamics:
     Total linear momentum <> 0

     Linear momentum :   -0.1919708482   -0.2558435207   -0.1469807512

     Writing output data file ms2.save
     Check: negative starting charge=   -0.000555
     NEW-OLD atomic charge density approx. for the potential
     Check: negative starting charge=   -0.000557

     negative rho (up, down):  0.369E-02 0.000E+00

     total cpu time spent up to now is       24.9 secs

     per-process dynamical memory:    13.6 Mb

     Self-consistent Calculation

     iteration #  1     ecut=    25.00 Ry     beta=0.70
     Davidson diagonalization with overlap
     ethr =  1.00E-06,  avg # of iterations =  4.0

     negative rho (up, down):  0.370E-02 0.000E+00

     total cpu time spent up to now is       25.1 secs

     total energy              =     -23.43614162 Ry
[...]
                           time      =   0.0929 pico-seconds


ATOMIC_POSITIONS (angstrom)
N        4.438507183   4.508064228   4.153089357
H        3.712308479   4.601326342   4.875764113
H        4.756305027   3.532248810   4.352908512
H        3.874175401   4.129612175   3.401246728


     kinetic energy (Ekin) =     0.00513527 Ry
     temperature           =   180.17645282 K 
     Ekin + Etot (const)   =   -23.42386312 Ry
     Message from routine dynamics:
     Total linear momentum <> 0

     Linear momentum :    0.0290325715    0.2541744967    0.0031640345

     Writing output data file ms2.save
     Check: negative starting charge=   -0.000562
     NEW-OLD atomic charge density approx. for the potential
     Check: negative starting charge=   -0.000550

     negative rho (up, down):  0.375E-02 0.000E+00

     total cpu time spent up to now is      107.1 secs

     per-process dynamical memory:    13.6 Mb

     Self-consistent Calculation

     iteration #  1     ecut=    25.00 Ry     beta=0.70
     Davidson diagonalization with overlap
     ethr =  1.00E-06,  avg # of iterations =  4.0

     negative rho (up, down):  0.367E-02 0.000E+00

     total cpu time spent up to now is      107.3 secs

     total energy              =     -23.43201884 Ry
     Harris-Foulkes estimate   =     -23.43275070 Ry
     estimated scf accuracy    <       0.00115377 Ry

     iteration #  2     ecut=    25.00 Ry     beta=0.70
     Davidson diagonalization with overlap
     ethr =  1.44E-05,  avg # of iterations =  2.0

     negative rho (up, down):  0.372E-02 0.000E+00

     total cpu time spent up to now is      107.4 secs

     total energy              =     -23.43227365 Ry
     Harris-Foulkes estimate   =     -23.43270505 Ry
     estimated scf accuracy    <       0.00086935 Ry

     iteration #  3     ecut=    25.00 Ry     beta=0.70
     Davidson diagonalization with overlap
     ethr =  1.09E-05,  avg # of iterations =  2.0

     negative rho (up, down):  0.373E-02 0.000E+00

     total cpu time spent up to now is      107.6 secs

     total energy              =     -23.43245661 Ry
     Harris-Foulkes estimate   =     -23.43245608 Ry
     estimated scf accuracy    <       0.00000703 Ry

     iteration #  4     ecut=    25.00 Ry     beta=0.70
     Davidson diagonalization with overlap
     ethr =  8.79E-08,  avg # of iterations =  2.0

     negative rho (up, down):  0.372E-02 0.000E+00

     total cpu time spent up to now is      107.7 secs

     End of self-consistent calculation

          k = 0.0000 0.0000 0.0000 (  4193 PWs)   bands (ev):

   -21.3494 -10.9491 -10.0467  -6.6893

!    total energy              =     -23.43245820 Ry
     Harris-Foulkes estimate   =     -23.43245849 Ry
     estimated scf accuracy    <       0.00000059 Ry

     convergence has been achieved in   4 iterations

     Forces acting on atoms (Ry/au):

     atom    1 type  1   force =    -0.00556863   -0.06561041    0.01356529
     atom    2 type  2   force =     0.00330622    0.01351829    0.00768629
     atom    3 type  2   force =     0.03081679    0.02306563    0.02684019
     atom    4 type  2   force =    -0.02872813    0.02887793   -0.04808023

     Total force =     0.104621     Total SCF correction =     0.001398

     Entering Dynamics:    iteration =    97
                           time      =   0.0939 pico-seconds


ATOMIC_POSITIONS (angstrom)
N        4.443109794   4.514712015   4.152855360
H        3.689246298   4.595831271   4.871987429
H        4.780800302   3.525977915   4.381983776
H        3.861117537   4.141164356   3.376431451


     kinetic energy (Ekin) =     0.00971707 Ry
     temperature           =   340.93391239 K 
     Ekin + Etot (const)   =   -23.42274113 Ry
     Message from routine dynamics:
     Total linear momentum <> 0

     Linear momentum :    0.1431389421    0.2521076407   -0.0075719452

     Writing output data file ms2.save
     Check: negative starting charge=   -0.000550
     NEW-OLD atomic charge density approx. for the potential
     Check: negative starting charge=   -0.000535

     negative rho (up, down):  0.369E-02 0.000E+00

     total cpu time spent up to now is      108.2 secs

     per-process dynamical memory:    13.6 Mb

     Self-consistent Calculation

     iteration #  1     ecut=    25.00 Ry     beta=0.70
     Davidson diagonalization with overlap
     ethr =  1.00E-06,  avg # of iterations =  5.0

     negative rho (up, down):  0.362E-02 0.000E+00

     total cpu time spent up to now is      108.4 secs

     total energy              =     -23.43394990 Ry
     Harris-Foulkes estimate   =     -23.43530583 Ry
     estimated scf accuracy    <       0.00210832 Ry

     iteration #  2     ecut=    25.00 Ry     beta=0.70
     Davidson diagonalization with overlap
     ethr =  2.64E-05,  avg # of iterations =  2.0

     negative rho (up, down):  0.369E-02 0.000E+00

     total cpu time spent up to now is      108.5 secs

     total energy              =     -23.43441001 Ry
     Harris-Foulkes estimate   =     -23.43527091 Ry
     estimated scf accuracy    <       0.00176220 Ry

     iteration #  3     ecut=    25.00 Ry     beta=0.70
     Davidson diagonalization with overlap
     ethr =  2.20E-05,  avg # of iterations =  2.0

     negative rho (up, down):  0.370E-02 0.000E+00

     total cpu time spent up to now is      108.7 secs

     total energy              =     -23.43477522 Ry
     Harris-Foulkes estimate   =     -23.43477367 Ry
     estimated scf accuracy    <       0.00001154 Ry

     iteration #  4     ecut=    25.00 Ry     beta=0.70
     Davidson diagonalization with overlap
     ethr =  1.44E-07,  avg # of iterations =  2.0

     negative rho (up, down):  0.369E-02 0.000E+00

     total cpu time spent up to now is      108.9 secs

     total energy              =     -23.43477836 Ry
     Harris-Foulkes estimate   =     -23.43477876 Ry
     estimated scf accuracy    <       0.00000114 Ry

     iteration #  5     ecut=    25.00 Ry     beta=0.70
     Davidson diagonalization with overlap
     ethr =  1.43E-08,  avg # of iterations =  2.0

     negative rho (up, down):  0.369E-02 0.000E+00

     total cpu time spent up to now is      109.0 secs

     End of self-consistent calculation

          k = 0.0000 0.0000 0.0000 (  4193 PWs)   bands (ev):

   -21.0858 -10.6879 -10.0531  -6.6965

!    total energy              =     -23.43477855 Ry
     Harris-Foulkes estimate   =     -23.43477854 Ry
     estimated scf accuracy    <       0.00000003 Ry

     convergence has been achieved in   5 iterations

     Forces acting on atoms (Ry/au):

     atom    1 type  1   force =    -0.03241478   -0.09427044    0.00971600
     atom    2 type  2   force =     0.01892036    0.01203799   -0.00532504
     atom    3 type  2   force =     0.01343615    0.04931822    0.01099836
     atom    4 type  2   force =     0.00001504    0.03298760   -0.01540075

     Total force =     0.120923     Total SCF correction =     0.000241

     Entering Dynamics:    iteration =    98
                           time      =   0.0948 pico-seconds


ATOMIC_POSITIONS (angstrom)
N        4.449470706   4.518498290   4.152465557
H        3.669026264   4.589942771   4.868784492
H        4.808981260   3.526254253   4.415099358
H        3.845770691   4.156270741   3.348003043


     kinetic energy (Ekin) =     0.01377179 Ry
     temperature           =   483.19801621 K 
     Ekin + Etot (const)   =   -23.42100676 Ry
     Message from routine dynamics:
     Total linear momentum <> 0

     Linear momentum :    0.2215750907    0.1699049441   -0.0107551099

     Writing output data file ms2.save
     Check: negative starting charge=   -0.000535
     NEW-OLD atomic charge density approx. for the potential
     Check: negative starting charge=   -0.000514

     negative rho (up, down):  0.363E-02 0.000E+00

     total cpu time spent up to now is      109.5 secs

     per-process dynamical memory:    13.6 Mb

     Self-consistent Calculation

     iteration #  1     ecut=    25.00 Ry     beta=0.70
     Davidson diagonalization with overlap
     ethr =  1.00E-06,  avg # of iterations =  5.0

     negative rho (up, down):  0.359E-02 0.000E+00

     total cpu time spent up to now is      109.6 secs

     total energy              =     -23.43282196 Ry
     Harris-Foulkes estimate   =     -23.43399802 Ry
     estimated scf accuracy    <       0.00188656 Ry

     iteration #  2     ecut=    25.00 Ry     beta=0.70
     Davidson diagonalization with overlap
     ethr =  2.36E-05,  avg # of iterations =  2.0

     negative rho (up, down):  0.365E-02 0.000E+00

     total cpu time spent up to now is      109.8 secs

     total energy              =     -23.43320869 Ry
     Harris-Foulkes estimate   =     -23.43404622 Ry
     estimated scf accuracy    <       0.00175126 Ry

     iteration #  3     ecut=    25.00 Ry     beta=0.70
     Davidson diagonalization with overlap
     ethr =  2.19E-05,  avg # of iterations =  2.0

     negative rho (up, down):  0.366E-02 0.000E+00

     total cpu time spent up to now is      110.0 secs

     total energy              =     -23.43356792 Ry
     Harris-Foulkes estimate   =     -23.43356575 Ry
     estimated scf accuracy    <       0.00001192 Ry

     iteration #  4     ecut=    25.00 Ry     beta=0.70
     Davidson diagonalization with overlap
     ethr =  1.49E-07,  avg # of iterations =  2.0

     negative rho (up, down):  0.365E-02 0.000E+00

     total cpu time spent up to now is      110.1 secs

     total energy              =     -23.43357099 Ry
     Harris-Foulkes estimate   =     -23.43357137 Ry
     estimated scf accuracy    <       0.00000111 Ry

     iteration #  5     ecut=    25.00 Ry     beta=0.70
     Davidson diagonalization with overlap
     ethr =  1.39E-08,  avg # of iterations =  2.0

     negative rho (up, down):  0.365E-02 0.000E+00

     total cpu time spent up to now is      110.3 secs

     End of self-consistent calculation

          k = 0.0000 0.0000 0.0000 (  4193 PWs)   bands (ev):

   -20.8378 -10.4326 -10.0962  -6.6793

!    total energy              =     -23.43357116 Ry
     Harris-Foulkes estimate   =     -23.43357115 Ry
     estimated scf accuracy    <       0.00000003 Ry

     convergence has been achieved in   5 iterations

     Forces acting on atoms (Ry/au):

     atom    1 type  1   force =    -0.05967457   -0.11010584    0.00587102
     atom    2 type  2   force =     0.03381404    0.01113408   -0.01701573
     atom    3 type  2   force =    -0.00144215    0.06495161   -0.00474463
     atom    4 type  2   force =     0.02726521    0.03409819    0.01586912

     Total force =     0.153873     Total SCF correction =     0.000148

     Entering Dynamics:    iteration =    99
                           time      =   0.0958 pico-seconds


ATOMIC_POSITIONS (angstrom)
N        4.455521485   4.517391598   4.151591585
H        3.653865681   4.581820312   4.862974755
H        4.835643241   3.535386483   4.448145360
H        3.833500801   4.173725223   3.323708727


     kinetic energy (Ekin) =     0.01416485 Ry
     temperature           =   496.98893111 K 
     Ekin + Etot (const)   =   -23.41940631 Ry
     Message from routine dynamics:
     Total linear momentum <> 0

     Linear momentum :    0.2278963195    0.0084639357   -0.0251698207

     Writing output data file ms2.save
     Check: negative starting charge=   -0.000514
     NEW-OLD atomic charge density approx. for the potential
     Check: negative starting charge=   -0.000501

     negative rho (up, down):  0.358E-02 0.000E+00

     total cpu time spent up to now is      110.7 secs

     per-process dynamical memory:    13.6 Mb

     Self-consistent Calculation

     iteration #  1     ecut=    25.00 Ry     beta=0.70
     Davidson diagonalization with overlap
     ethr =  1.00E-06,  avg # of iterations =  5.0

     negative rho (up, down):  0.356E-02 0.000E+00

     total cpu time spent up to now is      110.9 secs

     total energy              =     -23.43090343 Ry
     Harris-Foulkes estimate   =     -23.43127868 Ry
     estimated scf accuracy    <       0.00074944 Ry

     iteration #  2     ecut=    25.00 Ry     beta=0.70
     Davidson diagonalization with overlap
     ethr =  9.37E-06,  avg # of iterations =  2.0

     negative rho (up, down):  0.361E-02 0.000E+00

     total cpu time spent up to now is      111.1 secs

     total energy              =     -23.43103138 Ry
     Harris-Foulkes estimate   =     -23.43133142 Ry
     estimated scf accuracy    <       0.00062549 Ry

     iteration #  3     ecut=    25.00 Ry     beta=0.70
     Davidson diagonalization with overlap
     ethr =  7.82E-06,  avg # of iterations =  2.0

     negative rho (up, down):  0.361E-02 0.000E+00

     total cpu time spent up to now is      111.2 secs

     total energy              =     -23.43116823 Ry
     Harris-Foulkes estimate   =     -23.43116715 Ry
     estimated scf accuracy    <       0.00001049 Ry

     iteration #  4     ecut=    25.00 Ry     beta=0.70
     Davidson diagonalization with overlap
     ethr =  1.31E-07,  avg # of iterations =  2.0

     negative rho (up, down):  0.361E-02 0.000E+00

     total cpu time spent up to now is      111.4 secs

     End of self-consistent calculation

          k = 0.0000 0.0000 0.0000 (  4193 PWs)   bands (ev):

   -20.6756 -10.2787 -10.1504  -6.6367

!    total energy              =     -23.43116977 Ry
     Harris-Foulkes estimate   =     -23.43117001 Ry
     estimated scf accuracy    <       0.00000050 Ry

     convergence has been achieved in   4 iterations

     Forces acting on atoms (Ry/au):

     atom    1 type  1   force =    -0.07995328   -0.10990042    0.00472785
     atom    2 type  2   force =     0.04402403    0.01146717   -0.02369217
     atom    3 type  2   force =    -0.01127055    0.06799075   -0.01792024
     atom    4 type  2   force =     0.04691549    0.03027056    0.03687149

     Total force =     0.175133     Total SCF correction =     0.001058

     Entering Dynamics:    iteration =   100
                           time      =   0.0968 pico-seconds


ATOMIC_POSITIONS (angstrom)
N        4.459309067   4.510406519   4.149944551
H        3.644795094   4.570672845   4.852640577
H        4.856811003   3.553209209   4.477673339
H        3.827683796   4.191796330   3.308664596


     kinetic energy (Ekin) =     0.01291645 Ry
     temperature           =   453.18752347 K 
     Ekin + Etot (const)   =   -23.41825332 Ry
     Message from routine dynamics:
     Total linear momentum <> 0

     Linear momentum :    0.1611587578   -0.1977903980   -0.0512499438
     Check: negative starting charge=   -0.000501
     NEW-OLD atomic charge density approx. for the potential
     Check: negative starting charge=   -0.000503

     negative rho (up, down):  0.355E-02 0.000E+00

     total cpu time spent up to now is      111.7 secs

     per-process dynamical memory:    13.6 Mb

     Self-consistent Calculation

     iteration #  1     ecut=    25.00 Ry     beta=0.70
     Davidson diagonalization with overlap
     ethr =  1.00E-06,  avg # of iterations =  4.0

     negative rho (up, down):  0.355E-02 0.000E+00

     total cpu time spent up to now is      111.9 secs

     total energy              =     -23.43092199 Ry
     Harris-Foulkes estimate   =     -23.43088131 Ry
     estimated scf accuracy    <       0.00013139 Ry

     iteration #  2     ecut=    25.00 Ry     beta=0.70
     Davidson diagonalization with overlap
     ethr =  1.64E-06,  avg # of iterations =  1.0

     negative rho (up, down):  0.357E-02 0.000E+00

     total cpu time spent up to now is      112.1 secs

     total energy              =     -23.43093278 Ry
     Harris-Foulkes estimate   =     -23.43092686 Ry
     estimated scf accuracy    <       0.00001156 Ry

     iteration #  3     ecut=    25.00 Ry     beta=0.70
     Davidson diagonalization with overlap
     ethr =  1.44E-07,  avg # of iterations =  2.0

     negative rho (up, down):  0.358E-02 0.000E+00

     total cpu time spent up to now is      112.2 secs

     End of self-consistent calculation

          k = 0.0000 0.0000 0.0000 (  4193 PWs)   bands (ev):

   -20.6327 -10.4128 -10.0685  -6.5753

!    total energy              =     -23.43093307 Ry
     Harris-Foulkes estimate   =     -23.43093366 Ry
     estimated scf accuracy    <       0.00000096 Ry

     convergence has been achieved in   3 iterations

     Forces acting on atoms (Ry/au):

     atom    1 type  1   force =    -0.09086264   -0.09446529    0.00588987
     atom    2 type  2   force =     0.04782649    0.01318629   -0.02421175
     atom    3 type  2   force =    -0.01486642    0.05912078   -0.02713562
     atom    4 type  2   force =     0.05783755    0.02232817    0.04543027

     Total force =     0.174992     Total SCF correction =     0.000824

     The maximum number of steps has been reached.

     End of molecular dynamics calculation

     diffusion coefficients :
     atom     1   D =       0.00000236 cm^2/s
     atom     2   D =       0.00002591 cm^2/s
     atom     3   D =       0.00002256 cm^2/s
     atom     4   D =       0.00003704 cm^2/s

     < D > =       0.00002197 cm^2/s

     Entering Dynamics:    iteration =   101
                           time      =   0.0977 pico-seconds


ATOMIC_POSITIONS (angstrom)
N        4.459465622   4.497763233   4.147422781
H        3.641653038   4.556972129   4.837567613
H        4.870425399   3.577481302   4.501375130
H        3.829861599   4.208614846   3.304992829


     kinetic energy (Ekin) =     0.01345083 Ry
     temperature           =   471.93663897 K 
     Ekin + Etot (const)   =   -23.41748224 Ry
     Message from routine dynamics:
     Total linear momentum <> 0

     Linear momentum :    0.0405705128   -0.4056331073   -0.0822903975

     Writing output data file ms2.save

     init_run     :      0.26s CPU      0.35s WALL (       1 calls)
     electrons    :     57.47s CPU     63.97s WALL (     101 calls)
     update_pot   :     20.76s CPU     22.37s WALL (     100 calls)
     forces       :      9.00s CPU      9.48s WALL (     101 calls)

     Called by init_run:
     wfcinit      :      0.01s CPU      0.01s WALL (       1 calls)
     potinit      :      0.09s CPU      0.14s WALL (       1 calls)

     Called by electrons:
     c_bands      :      4.64s CPU      4.89s WALL (     411 calls)
     sum_band     :     10.98s CPU     11.66s WALL (     411 calls)
     v_of_rho     :     25.76s CPU     28.63s WALL (     512 calls)
     newd         :      7.62s CPU      8.00s WALL (     512 calls)
     mix_rho      :      2.16s CPU      2.37s WALL (     411 calls)

     Called by c_bands:
     init_us_2    :      0.11s CPU      0.12s WALL (     823 calls)
     regterg      :      4.51s CPU      4.70s WALL (     411 calls)

     Called by *egterg:
     h_psi        :      3.98s CPU      4.13s WALL (    1480 calls)
     s_psi        :      0.04s CPU      0.06s WALL (    1480 calls)
     g_psi        :      0.02s CPU      0.03s WALL (    1068 calls)
     rdiaghg      :      0.16s CPU      0.15s WALL (    1379 calls)

     Called by h_psi:
     add_vuspsi   :      0.05s CPU      0.06s WALL (    1480 calls)

     General routines
     calbec       :      0.14s CPU      0.16s WALL (    2295 calls)
     fft          :     21.58s CPU     25.34s WALL (    8090 calls)
     ffts         :      0.77s CPU      0.83s WALL (     923 calls)
     fftw         :      3.59s CPU      3.70s WALL (    6612 calls)
     interpolate  :      3.62s CPU      3.95s WALL (     923 calls)
     davcio       :      0.03s CPU      0.03s WALL (     411 calls)

     Parallel routines
     fft_scatter  :     11.02s CPU     14.71s WALL (   15625 calls)

     PWSCF        :  1m41.14s CPU     1m52.41s WALL


   This run was terminated on:  18:58: 7  11Feb2015            

=------------------------------------------------------------------------------=
   JOB DONE.
=------------------------------------------------------------------------------=
