LAMMPS data file for ALA

13 atoms
12 bonds
21 angles
25 dihedrals

7 atom types
7 bond types
12 angle types
3 dihedral types

0.0 28.911821 xlo xhi
0.0 29.461019 ylo yhi
0.0 30.130040000000001 zlo zhi

Masses

1 16.0
2 12.01
3 12.01
4 14.01
5 1.008
6 1.008
7 1.008

Pair Coeffs

1 0.20999999984182244 2.9599219016446874
2 0.086000000128358844 3.3996695079448309
3 0.10939999991572773 3.3996695084507409
4 0.16999999991766696 3.2499985240310356
5 0.015700000004219245 1.0690784617205229
6 0.015700000062726104 1.9599771790073583
7 0.01570000002623629 2.6495327872602221

Bond Coeffs

1 648.0 1.214
2 328.30000000000001 1.508
3 293.60000000000002 1.4990000000000001
4 338.69999999999999 1.091
5 303.10000000000002 1.5349999999999999
6 369.0 1.0329999999999999
7 337.30000000000001 1.0920000000000001

Angle Coeffs

1 79.099999999999994 127.33005462783707
2 68.0 123.1100525900646
3 65.799999999999997 111.54004768873976
4 47.399999999999999 108.64004644587028
5 63.799999999999997 110.53004742776565
6 46.200000000000003 110.11004701858076
7 46.399999999999999 110.05004745123244
8 49.0 107.91004607571426
9 66.0 108.93004674204457
10 40.5 108.11004616142939
11 46.0 111.74004777445489
12 39.399999999999999 108.3500467226538

Dihedral Coeffs

1 0.0 -1 2
2 0.15555555600000001 1 3
3 1.1000000000000001 -1 2

Atoms

1 0 1 -0.80322999840854337 12.9172168 16.1641312 14.929909500000001
2 0 2 0.93724000263413498 13.5905922 15.3296604 15.5097241
3 0 1 -0.70718999796952087 14.038221699999999 15.574552600000001 16.737956799999999
4 0 3 -0.075600000000000001 13.9171522 14.025869500000001 14.841525799999999
5 0 4 -0.83944999807927645 13.3010153 13.9926829 13.505091
6 0 5 0.41856000010975564 13.5945211 13.157439699999999 13.025224100000001
7 0 5 0.48733000005487781 13.3555425 14.7810086 12.8808968
8 0 5 0.42190999983536659 12.357148199999999 13.894890800000001 13.8451138
9 0 6 0.088920000219511255 13.5426571 13.188985199999999 15.4456632
10 0 3 -0.10606999994512219 15.4416019 13.884737899999999 14.7054966
11 0 7 0.050689999999999999 15.843947099999999 14.74948 14.161489899999999
12 0 7 0.02069 15.6753331 12.961215299999999 14.1535212
13 0 7 0.1062 15.8936607 13.8376073 15.7094018

Bonds

1 4 4 9
2 6 5 6
3 6 5 7
4 6 5 8
5 7 10 11
6 7 10 12
7 7 10 13
8 1 1 2
9 1 2 3
10 2 2 4
11 3 4 5
12 5 4 10

Angles

1 4 2 4 9
2 6 4 5 6
3 6 4 5 7
4 6 4 5 8
5 7 4 10 11
6 7 4 10 12
7 7 4 10 13
8 8 5 4 9
9 10 6 5 7
10 10 6 5 8
11 10 7 5 8
12 11 9 4 10
13 12 11 10 12
14 12 11 10 13
15 12 12 10 13
16 1 1 2 3
17 2 1 2 4
18 3 2 4 5
19 5 2 4 10
20 2 3 2 4
21 9 5 4 10

Dihedrals

1 1 1 2 4 9
2 2 2 4 5 6
3 2 2 4 5 7
4 2 2 4 5 8
5 2 2 4 10 11
6 2 2 4 10 12
7 2 2 4 10 13
8 1 3 2 4 9
9 2 5 4 10 11
10 2 5 4 10 12
11 2 5 4 10 13
12 2 6 5 4 9
13 2 6 5 4 10
14 2 7 5 4 9
15 2 7 5 4 10
16 2 8 5 4 9
17 2 8 5 4 10
18 2 9 4 10 11
19 2 9 4 10 12
20 2 9 4 10 13
21 1 1 2 4 5
22 1 1 2 4 10
23 1 3 2 4 5
24 1 3 2 4 10
25 3 4 1 2 3
