LAMMPS data file

12 atoms

2 atom types

0.0 41.16 xlo xhi
0.0 41.16 ylo yhi
0.0 41.16 zlo zhi

Masses

1 12.01
2 1.008

Pair Coeffs

1 0.0860 3.39967
2 0.0150 2.59964

Atoms

1 0 1 -0.130889 20.6805 22.6587 21.177
2 0 2 0.130889 21.6808 22.8222 20.7842
3 0 1 -0.130889 20.0099 23.7116 21.7476
4 0 2 0.130889 20.4112 24.7194 21.6772
5 0 1 -0.130889 18.7293 23.5119 22.2708
6 0 2 0.130889 18.1523 24.3369 22.6807
7 0 1 -0.130889 18.1301 22.2304 22.2846
8 0 2 0.130889 17.1856 21.9952 22.7685
9 0 1 -0.130889 18.8193 21.1774 21.657
10 0 2 0.130889 18.356 20.1946 21.625
11 0 1 -0.130889 20.0578 21.4058 21.0563
12 0 2 0.130889 20.58 20.58 20.58
