LAMMPS (30 Oct 2014)
Reading data file ...
  orthogonal box = (0 0 0) to (15.86 15.86 15.86)
  1 by 1 by 1 MPI processor grid
  reading atoms ...
  4 atoms
Finding 1-2 1-3 1-4 neighbors ...
  0 = max # of 1-2 neighbors
  0 = max # of 1-3 neighbors
  0 = max # of 1-4 neighbors
  1 = max # of special neighbors
MS2EC Module: slave role
MS2EC Module: init
MS2EC Module: pre force
Setting up run ...
MS2EC Module: setup
MS2EC Module: post force
Memory usage per processor = 4.8017 Mbytes
---------------- Step        0 ----- CPU =      0.0000 (sec) ----------------
TotEng   =      8633.7982 KinEng   =         0.0000 Temp     =         0.0000 
PotEng   =      8633.7982 E_bond   =         0.0000 E_angle  =         0.0000 
E_dihed  =         0.0000 E_impro  =         0.0000 E_vdwl   =      8633.7982 
E_coul   =         0.0000 E_long   =         0.0000 Press    =    595457.5893 
MS2EC Module: pre force
MS2EC Module: post force
---------------- Step        1 ----- CPU =      4.5146 (sec) ----------------
TotEng   =      8020.4202 KinEng   =         0.0000 Temp     =         0.0000 
PotEng   =      8020.4202 E_bond   =         0.0000 E_angle  =         0.0000 
E_dihed  =         0.0000 E_impro  =         0.0000 E_vdwl   =      8020.4202 
E_coul   =         0.0000 E_long   =         0.0000 Press    =    553224.5112 
MS2EC Module: pre force
MS2EC Module: post force
---------------- Step        2 ----- CPU =      8.1517 (sec) ----------------
TotEng   =      6746.7557 KinEng   =         0.0000 Temp     =         0.0000 
PotEng   =      6746.7557 E_bond   =         0.0000 E_angle  =         0.0000 
E_dihed  =         0.0000 E_impro  =         0.0000 E_vdwl   =      6746.7557 
E_coul   =         0.0000 E_long   =         0.0000 Press    =    465515.7869 
MS2EC Module: pre force
MS2EC Module: post force
---------------- Step        3 ----- CPU =     11.7973 (sec) ----------------
TotEng   =      5621.2610 KinEng   =         0.0000 Temp     =         0.0000 
PotEng   =      5621.2610 E_bond   =         0.0000 E_angle  =         0.0000 
E_dihed  =         0.0000 E_impro  =         0.0000 E_vdwl   =      5621.2610 
E_coul   =         0.0000 E_long   =         0.0000 Press    =    387992.3128 
MS2EC Module: pre force
MS2EC Module: post force
---------------- Step        4 ----- CPU =     15.4439 (sec) ----------------
TotEng   =      4940.5192 KinEng   =         0.0000 Temp     =         0.0000 
PotEng   =      4940.5192 E_bond   =         0.0000 E_angle  =         0.0000 
E_dihed  =         0.0000 E_impro  =         0.0000 E_vdwl   =      4940.5192 
E_coul   =         0.0000 E_long   =         0.0000 Press    =    341092.2519 
MS2EC Module: pre force
MS2EC Module: post force
---------------- Step        5 ----- CPU =     19.0860 (sec) ----------------
TotEng   =      4712.6397 KinEng   =         0.0000 Temp     =         0.0000 
PotEng   =      4712.6397 E_bond   =         0.0000 E_angle  =         0.0000 
E_dihed  =         0.0000 E_impro  =         0.0000 E_vdwl   =      4712.6397 
E_coul   =         0.0000 E_long   =         0.0000 Press    =    325389.9130 
MS2EC Module: pre force
MS2EC Module: post force
---------------- Step        6 ----- CPU =     22.7278 (sec) ----------------
TotEng   =      4917.3041 KinEng   =         0.0000 Temp     =         0.0000 
PotEng   =      4917.3041 E_bond   =         0.0000 E_angle  =         0.0000 
E_dihed  =         0.0000 E_impro  =         0.0000 E_vdwl   =      4917.3041 
E_coul   =         0.0000 E_long   =         0.0000 Press    =    339492.0995 
MS2EC Module: pre force
MS2EC Module: post force
---------------- Step        7 ----- CPU =     26.3732 (sec) ----------------
TotEng   =      5575.3043 KinEng   =         0.0000 Temp     =         0.0000 
PotEng   =      5575.3043 E_bond   =         0.0000 E_angle  =         0.0000 
E_dihed  =         0.0000 E_impro  =         0.0000 E_vdwl   =      5575.3043 
E_coul   =         0.0000 E_long   =         0.0000 Press    =    384825.7804 
MS2EC Module: pre force
MS2EC Module: post force
---------------- Step        8 ----- CPU =     30.0187 (sec) ----------------
TotEng   =      6703.2014 KinEng   =         0.0000 Temp     =         0.0000 
PotEng   =      6703.2014 E_bond   =         0.0000 E_angle  =         0.0000 
E_dihed  =         0.0000 E_impro  =         0.0000 E_vdwl   =      6703.2014 
E_coul   =         0.0000 E_long   =         0.0000 Press    =    462516.2203 
MS2EC Module: pre force
MS2EC Module: post force
---------------- Step        9 ----- CPU =     34.0580 (sec) ----------------
TotEng   =      8030.8575 KinEng   =         0.0000 Temp     =         0.0000 
PotEng   =      8030.8575 E_bond   =         0.0000 E_angle  =         0.0000 
E_dihed  =         0.0000 E_impro  =         0.0000 E_vdwl   =      8030.8575 
E_coul   =         0.0000 E_long   =         0.0000 Press    =    553945.6515 
MS2EC Module: pre force
MS2EC Module: post force
---------------- Step       10 ----- CPU =     37.7137 (sec) ----------------
TotEng   =      8754.4880 KinEng   =         0.0000 Temp     =         0.0000 
PotEng   =      8754.4880 E_bond   =         0.0000 E_angle  =         0.0000 
E_dihed  =         0.0000 E_impro  =         0.0000 E_vdwl   =      8754.4880 
E_coul   =         0.0000 E_long   =         0.0000 Press    =    603773.1797 
MS2EC Module: pre force
MS2EC Module: post force
---------------- Step       11 ----- CPU =     41.3575 (sec) ----------------
TotEng   =      8278.1173 KinEng   =         0.0000 Temp     =         0.0000 
PotEng   =      8278.1173 E_bond   =         0.0000 E_angle  =         0.0000 
E_dihed  =         0.0000 E_impro  =         0.0000 E_vdwl   =      8278.1173 
E_coul   =         0.0000 E_long   =         0.0000 Press    =    570974.9706 
MS2EC Module: pre force
MS2EC Module: post force
---------------- Step       12 ----- CPU =     45.0025 (sec) ----------------
TotEng   =      7108.9155 KinEng   =         0.0000 Temp     =         0.0000 
PotEng   =      7108.9155 E_bond   =         0.0000 E_angle  =         0.0000 
E_dihed  =         0.0000 E_impro  =         0.0000 E_vdwl   =      7108.9155 
E_coul   =         0.0000 E_long   =         0.0000 Press    =    490459.3091 
MS2EC Module: pre force
MS2EC Module: post force
---------------- Step       13 ----- CPU =     48.6441 (sec) ----------------
TotEng   =      5996.7654 KinEng   =         0.0000 Temp     =         0.0000 
PotEng   =      5996.7654 E_bond   =         0.0000 E_angle  =         0.0000 
E_dihed  =         0.0000 E_impro  =         0.0000 E_vdwl   =      5996.7654 
E_coul   =         0.0000 E_long   =         0.0000 Press    =    413854.9518 
MS2EC Module: pre force
MS2EC Module: post force
---------------- Step       14 ----- CPU =     52.4660 (sec) ----------------
TotEng   =      5241.0395 KinEng   =         0.0000 Temp     =         0.0000 
PotEng   =      5241.0395 E_bond   =         0.0000 E_angle  =         0.0000 
E_dihed  =         0.0000 E_impro  =         0.0000 E_vdwl   =      5241.0395 
E_coul   =         0.0000 E_long   =         0.0000 Press    =    361791.2835 
MS2EC Module: pre force
MS2EC Module: post force
---------------- Step       15 ----- CPU =     56.1076 (sec) ----------------
TotEng   =      4884.8397 KinEng   =         0.0000 Temp     =         0.0000 
PotEng   =      4884.8397 E_bond   =         0.0000 E_angle  =         0.0000 
E_dihed  =         0.0000 E_impro  =         0.0000 E_vdwl   =      4884.8397 
E_coul   =         0.0000 E_long   =         0.0000 Press    =    337251.3689 
MS2EC Module: pre force
MS2EC Module: post force
---------------- Step       16 ----- CPU =     59.7516 (sec) ----------------
TotEng   =      4948.8775 KinEng   =         0.0000 Temp     =         0.0000 
PotEng   =      4948.8775 E_bond   =         0.0000 E_angle  =         0.0000 
E_dihed  =         0.0000 E_impro  =         0.0000 E_vdwl   =      4948.8775 
E_coul   =         0.0000 E_long   =         0.0000 Press    =    341667.5380 
MS2EC Module: pre force
MS2EC Module: post force
---------------- Step       17 ----- CPU =     63.5721 (sec) ----------------
TotEng   =      5491.4277 KinEng   =         0.0000 Temp     =         0.0000 
PotEng   =      5491.4277 E_bond   =         0.0000 E_angle  =         0.0000 
E_dihed  =         0.0000 E_impro  =         0.0000 E_vdwl   =      5491.4277 
E_coul   =         0.0000 E_long   =         0.0000 Press    =    379048.5872 
MS2EC Module: pre force
MS2EC Module: post force
---------------- Step       18 ----- CPU =     67.2187 (sec) ----------------
TotEng   =      6546.1694 KinEng   =         0.0000 Temp     =         0.0000 
PotEng   =      6546.1694 E_bond   =         0.0000 E_angle  =         0.0000 
E_dihed  =         0.0000 E_impro  =         0.0000 E_vdwl   =      6546.1694 
E_coul   =         0.0000 E_long   =         0.0000 Press    =    451699.0627 
MS2EC Module: pre force
MS2EC Module: post force
---------------- Step       19 ----- CPU =     70.8644 (sec) ----------------
TotEng   =      7838.5859 KinEng   =         0.0000 Temp     =         0.0000 
PotEng   =      7838.5859 E_bond   =         0.0000 E_angle  =         0.0000 
E_dihed  =         0.0000 E_impro  =         0.0000 E_vdwl   =      7838.5859 
E_coul   =         0.0000 E_long   =         0.0000 Press    =    540700.8232 
MS2EC Module: pre force
MS2EC Module: post force
---------------- Step       20 ----- CPU =     74.5140 (sec) ----------------
TotEng   =      8563.9346 KinEng   =         0.0000 Temp     =         0.0000 
PotEng   =      8563.9346 E_bond   =         0.0000 E_angle  =         0.0000 
E_dihed  =         0.0000 E_impro  =         0.0000 E_vdwl   =      8563.9346 
E_coul   =         0.0000 E_long   =         0.0000 Press    =    590647.9067 
MS2EC Module: pre force
MS2EC Module: post force
---------------- Step       21 ----- CPU =     78.1572 (sec) ----------------
TotEng   =      8147.8503 KinEng   =         0.0000 Temp     =         0.0000 
PotEng   =      8147.8503 E_bond   =         0.0000 E_angle  =         0.0000 
E_dihed  =         0.0000 E_impro  =         0.0000 E_vdwl   =      8147.8503 
E_coul   =         0.0000 E_long   =         0.0000 Press    =    562002.3928 
MS2EC Module: pre force
MS2EC Module: post force
---------------- Step       22 ----- CPU =     81.8019 (sec) ----------------
TotEng   =      7040.7923 KinEng   =         0.0000 Temp     =         0.0000 
PotEng   =      7040.7923 E_bond   =         0.0000 E_angle  =         0.0000 
E_dihed  =         0.0000 E_impro  =         0.0000 E_vdwl   =      7040.7923 
E_coul   =         0.0000 E_long   =         0.0000 Press    =    485767.0563 
MS2EC Module: pre force
MS2EC Module: post force
---------------- Step       23 ----- CPU =     85.4421 (sec) ----------------
TotEng   =      5928.5388 KinEng   =         0.0000 Temp     =         0.0000 
PotEng   =      5928.5388 E_bond   =         0.0000 E_angle  =         0.0000 
E_dihed  =         0.0000 E_impro  =         0.0000 E_vdwl   =      5928.5388 
E_coul   =         0.0000 E_long   =         0.0000 Press    =    409156.8272 
MS2EC Module: pre force
MS2EC Module: post force
---------------- Step       24 ----- CPU =     89.0870 (sec) ----------------
TotEng   =      5130.1105 KinEng   =         0.0000 Temp     =         0.0000 
PotEng   =      5130.1105 E_bond   =         0.0000 E_angle  =         0.0000 
E_dihed  =         0.0000 E_impro  =         0.0000 E_vdwl   =      5130.1105 
E_coul   =         0.0000 E_long   =         0.0000 Press    =    354152.3630 
MS2EC Module: pre force
MS2EC Module: post force
---------------- Step       25 ----- CPU =     92.7244 (sec) ----------------
TotEng   =      4730.4599 KinEng   =         0.0000 Temp     =         0.0000 
PotEng   =      4730.4599 E_bond   =         0.0000 E_angle  =         0.0000 
E_dihed  =         0.0000 E_impro  =         0.0000 E_vdwl   =      4730.4599 
E_coul   =         0.0000 E_long   =         0.0000 Press    =    326618.1614 
MS2EC Module: pre force
MS2EC Module: post force
---------------- Step       26 ----- CPU =     96.3697 (sec) ----------------
TotEng   =      4759.7613 KinEng   =         0.0000 Temp     =         0.0000 
PotEng   =      4759.7613 E_bond   =         0.0000 E_angle  =         0.0000 
E_dihed  =         0.0000 E_impro  =         0.0000 E_vdwl   =      4759.7613 
E_coul   =         0.0000 E_long   =         0.0000 Press    =    328639.5999 
MS2EC Module: pre force
MS2EC Module: post force
---------------- Step       27 ----- CPU =    100.0103 (sec) ----------------
TotEng   =      5264.5550 KinEng   =         0.0000 Temp     =         0.0000 
PotEng   =      5264.5550 E_bond   =         0.0000 E_angle  =         0.0000 
E_dihed  =         0.0000 E_impro  =         0.0000 E_vdwl   =      5264.5550 
E_coul   =         0.0000 E_long   =         0.0000 Press    =    363419.4843 
MS2EC Module: pre force
MS2EC Module: post force
---------------- Step       28 ----- CPU =    103.8423 (sec) ----------------
TotEng   =      6268.4215 KinEng   =         0.0000 Temp     =         0.0000 
PotEng   =      6268.4215 E_bond   =         0.0000 E_angle  =         0.0000 
E_dihed  =         0.0000 E_impro  =         0.0000 E_vdwl   =      6268.4215 
E_coul   =         0.0000 E_long   =         0.0000 Press    =    432569.1838 
MS2EC Module: pre force
MS2EC Module: post force
---------------- Step       29 ----- CPU =    107.5061 (sec) ----------------
TotEng   =      7536.4346 KinEng   =         0.0000 Temp     =         0.0000 
PotEng   =      7536.4346 E_bond   =         0.0000 E_angle  =         0.0000 
E_dihed  =         0.0000 E_impro  =         0.0000 E_vdwl   =      7536.4346 
E_coul   =         0.0000 E_long   =         0.0000 Press    =    519897.0896 
MS2EC Module: pre force
MS2EC Module: post force
---------------- Step       30 ----- CPU =    111.1500 (sec) ----------------
TotEng   =      8390.6210 KinEng   =         0.0000 Temp     =         0.0000 
PotEng   =      8390.6210 E_bond   =         0.0000 E_angle  =         0.0000 
E_dihed  =         0.0000 E_impro  =         0.0000 E_vdwl   =      8390.6210 
E_coul   =         0.0000 E_long   =         0.0000 Press    =    578720.2982 
MS2EC Module: pre force
MS2EC Module: post force
---------------- Step       31 ----- CPU =    114.8009 (sec) ----------------
TotEng   =      8276.7295 KinEng   =         0.0000 Temp     =         0.0000 
PotEng   =      8276.7295 E_bond   =         0.0000 E_angle  =         0.0000 
E_dihed  =         0.0000 E_impro  =         0.0000 E_vdwl   =      8276.7295 
E_coul   =         0.0000 E_long   =         0.0000 Press    =    570881.7298 
MS2EC Module: pre force
MS2EC Module: post force
---------------- Step       32 ----- CPU =    118.2782 (sec) ----------------
TotEng   =      7419.7485 KinEng   =         0.0000 Temp     =         0.0000 
PotEng   =      7419.7485 E_bond   =         0.0000 E_angle  =         0.0000 
E_dihed  =         0.0000 E_impro  =         0.0000 E_vdwl   =      7419.7485 
E_coul   =         0.0000 E_long   =         0.0000 Press    =    511865.3765 
MS2EC Module: pre force
MS2EC Module: post force
---------------- Step       33 ----- CPU =    121.9236 (sec) ----------------
TotEng   =      6375.3552 KinEng   =         0.0000 Temp     =         0.0000 
PotEng   =      6375.3552 E_bond   =         0.0000 E_angle  =         0.0000 
E_dihed  =         0.0000 E_impro  =         0.0000 E_vdwl   =      6375.3552 
E_coul   =         0.0000 E_long   =         0.0000 Press    =    439930.3949 
MS2EC Module: pre force
MS2EC Module: post force
---------------- Step       34 ----- CPU =    125.5724 (sec) ----------------
TotEng   =      5512.8012 KinEng   =         0.0000 Temp     =         0.0000 
PotEng   =      5512.8012 E_bond   =         0.0000 E_angle  =         0.0000 
E_dihed  =         0.0000 E_impro  =         0.0000 E_vdwl   =      5512.8012 
E_coul   =         0.0000 E_long   =         0.0000 Press    =    380513.0975 
MS2EC Module: pre force
MS2EC Module: post force
---------------- Step       35 ----- CPU =    129.2106 (sec) ----------------
TotEng   =      5012.3989 KinEng   =         0.0000 Temp     =         0.0000 
PotEng   =      5012.3989 E_bond   =         0.0000 E_angle  =         0.0000 
E_dihed  =         0.0000 E_impro  =         0.0000 E_vdwl   =      5012.3989 
E_coul   =         0.0000 E_long   =         0.0000 Press    =    346042.0906 
MS2EC Module: pre force
MS2EC Module: post force
---------------- Step       36 ----- CPU =    132.8606 (sec) ----------------
TotEng   =      4971.6849 KinEng   =         0.0000 Temp     =         0.0000 
PotEng   =      4971.6849 E_bond   =         0.0000 E_angle  =         0.0000 
E_dihed  =         0.0000 E_impro  =         0.0000 E_vdwl   =      4971.6849 
E_coul   =         0.0000 E_long   =         0.0000 Press    =    343241.0216 
MS2EC Module: pre force
MS2EC Module: post force
---------------- Step       37 ----- CPU =    136.4989 (sec) ----------------
TotEng   =      5465.5979 KinEng   =         0.0000 Temp     =         0.0000 
PotEng   =      5465.5979 E_bond   =         0.0000 E_angle  =         0.0000 
E_dihed  =         0.0000 E_impro  =         0.0000 E_vdwl   =      5465.5979 
E_coul   =         0.0000 E_long   =         0.0000 Press    =    377268.3453 
MS2EC Module: pre force
MS2EC Module: post force
---------------- Step       38 ----- CPU =    140.1353 (sec) ----------------
TotEng   =      6493.7582 KinEng   =         0.0000 Temp     =         0.0000 
PotEng   =      6493.7582 E_bond   =         0.0000 E_angle  =         0.0000 
E_dihed  =         0.0000 E_impro  =         0.0000 E_vdwl   =      6493.7582 
E_coul   =         0.0000 E_long   =         0.0000 Press    =    448085.9480 
MS2EC Module: pre force
MS2EC Module: post force
---------------- Step       39 ----- CPU =    143.7830 (sec) ----------------
TotEng   =      7745.0656 KinEng   =         0.0000 Temp     =         0.0000 
PotEng   =      7745.0656 E_bond   =         0.0000 E_angle  =         0.0000 
E_dihed  =         0.0000 E_impro  =         0.0000 E_vdwl   =      7745.0656 
E_coul   =         0.0000 E_long   =         0.0000 Press    =    534260.5101 
MS2EC Module: pre force
MS2EC Module: post force
---------------- Step       40 ----- CPU =    147.4304 (sec) ----------------
TotEng   =      8531.6014 KinEng   =         0.0000 Temp     =         0.0000 
PotEng   =      8531.6014 E_bond   =         0.0000 E_angle  =         0.0000 
E_dihed  =         0.0000 E_impro  =         0.0000 E_vdwl   =      8531.6014 
E_coul   =         0.0000 E_long   =         0.0000 Press    =    588426.5869 
MS2EC Module: pre force
MS2EC Module: post force
---------------- Step       41 ----- CPU =    151.2426 (sec) ----------------
TotEng   =      8408.2429 KinEng   =         0.0000 Temp     =         0.0000 
PotEng   =      8408.2429 E_bond   =         0.0000 E_angle  =         0.0000 
E_dihed  =         0.0000 E_impro  =         0.0000 E_vdwl   =      8408.2429 
E_coul   =         0.0000 E_long   =         0.0000 Press    =    579936.5013 
MS2EC Module: pre force
MS2EC Module: post force
---------------- Step       42 ----- CPU =    154.8744 (sec) ----------------
TotEng   =      7561.1248 KinEng   =         0.0000 Temp     =         0.0000 
PotEng   =      7561.1248 E_bond   =         0.0000 E_angle  =         0.0000 
E_dihed  =         0.0000 E_impro  =         0.0000 E_vdwl   =      7561.1248 
E_coul   =         0.0000 E_long   =         0.0000 Press    =    521599.3672 
MS2EC Module: pre force
MS2EC Module: post force
---------------- Step       43 ----- CPU =    158.5185 (sec) ----------------
TotEng   =      6443.7106 KinEng   =         0.0000 Temp     =         0.0000 
PotEng   =      6443.7106 E_bond   =         0.0000 E_angle  =         0.0000 
E_dihed  =         0.0000 E_impro  =         0.0000 E_vdwl   =      6443.7106 
E_coul   =         0.0000 E_long   =         0.0000 Press    =    444638.2638 
MS2EC Module: pre force
MS2EC Module: post force
---------------- Step       44 ----- CPU =    162.1619 (sec) ----------------
TotEng   =      5475.9034 KinEng   =         0.0000 Temp     =         0.0000 
PotEng   =      5475.9034 E_bond   =         0.0000 E_angle  =         0.0000 
E_dihed  =         0.0000 E_impro  =         0.0000 E_vdwl   =      5475.9034 
E_coul   =         0.0000 E_long   =         0.0000 Press    =    377973.8307 
MS2EC Module: pre force
MS2EC Module: post force
---------------- Step       45 ----- CPU =    165.8126 (sec) ----------------
TotEng   =      4898.3051 KinEng   =         0.0000 Temp     =         0.0000 
PotEng   =      4898.3051 E_bond   =         0.0000 E_angle  =         0.0000 
E_dihed  =         0.0000 E_impro  =         0.0000 E_vdwl   =      4898.3051 
E_coul   =         0.0000 E_long   =         0.0000 Press    =    338184.7892 
MS2EC Module: pre force
MS2EC Module: post force
---------------- Step       46 ----- CPU =    169.4588 (sec) ----------------
TotEng   =      4799.8625 KinEng   =         0.0000 Temp     =         0.0000 
PotEng   =      4799.8625 E_bond   =         0.0000 E_angle  =         0.0000 
E_dihed  =         0.0000 E_impro  =         0.0000 E_vdwl   =      4799.8625 
E_coul   =         0.0000 E_long   =         0.0000 Press    =    331404.8905 
MS2EC Module: pre force
MS2EC Module: post force
---------------- Step       47 ----- CPU =    173.1049 (sec) ----------------
TotEng   =      5209.8865 KinEng   =         0.0000 Temp     =         0.0000 
PotEng   =      5209.8865 E_bond   =         0.0000 E_angle  =         0.0000 
E_dihed  =         0.0000 E_impro  =         0.0000 E_vdwl   =      5209.8865 
E_coul   =         0.0000 E_long   =         0.0000 Press    =    359653.1801 
MS2EC Module: pre force
MS2EC Module: post force
---------------- Step       48 ----- CPU =    176.7483 (sec) ----------------
TotEng   =      6082.8704 KinEng   =         0.0000 Temp     =         0.0000 
PotEng   =      6082.8704 E_bond   =         0.0000 E_angle  =         0.0000 
E_dihed  =         0.0000 E_impro  =         0.0000 E_vdwl   =      6082.8704 
E_coul   =         0.0000 E_long   =         0.0000 Press    =    419787.3019 
MS2EC Module: pre force
MS2EC Module: post force
---------------- Step       49 ----- CPU =    180.3968 (sec) ----------------
TotEng   =      7174.6185 KinEng   =         0.0000 Temp     =         0.0000 
PotEng   =      7174.6185 E_bond   =         0.0000 E_angle  =         0.0000 
E_dihed  =         0.0000 E_impro  =         0.0000 E_vdwl   =      7174.6185 
E_coul   =         0.0000 E_long   =         0.0000 Press    =    494981.2454 
MS2EC Module: pre force
MS2EC Module: post force
---------------- Step       50 ----- CPU =    184.1503 (sec) ----------------
TotEng   =      8002.1747 KinEng   =         0.0000 Temp     =         0.0000 
PotEng   =      8002.1747 E_bond   =         0.0000 E_angle  =         0.0000 
E_dihed  =         0.0000 E_impro  =         0.0000 E_vdwl   =      8002.1747 
E_coul   =         0.0000 E_long   =         0.0000 Press    =    551975.1254 
MS2EC Module: pre force
MS2EC Module: post force
---------------- Step       51 ----- CPU =    187.8047 (sec) ----------------
TotEng   =      8153.4165 KinEng   =         0.0000 Temp     =         0.0000 
PotEng   =      8153.4165 E_bond   =         0.0000 E_angle  =         0.0000 
E_dihed  =         0.0000 E_impro  =         0.0000 E_vdwl   =      8153.4165 
E_coul   =         0.0000 E_long   =         0.0000 Press    =    562390.6578 
MS2EC Module: pre force
MS2EC Module: post force
---------------- Step       52 ----- CPU =    191.4495 (sec) ----------------
TotEng   =      7584.1779 KinEng   =         0.0000 Temp     =         0.0000 
PotEng   =      7584.1779 E_bond   =         0.0000 E_angle  =         0.0000 
E_dihed  =         0.0000 E_impro  =         0.0000 E_vdwl   =      7584.1779 
E_coul   =         0.0000 E_long   =         0.0000 Press    =    523186.2287 
MS2EC Module: pre force
MS2EC Module: post force
---------------- Step       53 ----- CPU =    195.0962 (sec) ----------------
TotEng   =      6609.1992 KinEng   =         0.0000 Temp     =         0.0000 
PotEng   =      6609.1992 E_bond   =         0.0000 E_angle  =         0.0000 
E_dihed  =         0.0000 E_impro  =         0.0000 E_vdwl   =      6609.1992 
E_coul   =         0.0000 E_long   =         0.0000 Press    =    456035.2107 
MS2EC Module: pre force
MS2EC Module: post force
---------------- Step       54 ----- CPU =    198.7455 (sec) ----------------
TotEng   =      5669.3064 KinEng   =         0.0000 Temp     =         0.0000 
PotEng   =      5669.3064 E_bond   =         0.0000 E_angle  =         0.0000 
E_dihed  =         0.0000 E_impro  =         0.0000 E_vdwl   =      5669.3064 
E_coul   =         0.0000 E_long   =         0.0000 Press    =    391296.1526 
MS2EC Module: pre force
MS2EC Module: post force
---------------- Step       55 ----- CPU =    202.3861 (sec) ----------------
TotEng   =      5079.3136 KinEng   =         0.0000 Temp     =         0.0000 
PotEng   =      5079.3136 E_bond   =         0.0000 E_angle  =         0.0000 
E_dihed  =         0.0000 E_impro  =         0.0000 E_vdwl   =      5079.3136 
E_coul   =         0.0000 E_long   =         0.0000 Press    =    350655.3129 
MS2EC Module: pre force
MS2EC Module: post force
---------------- Step       56 ----- CPU =    206.0288 (sec) ----------------
TotEng   =      4976.4405 KinEng   =         0.0000 Temp     =         0.0000 
PotEng   =      4976.4405 E_bond   =         0.0000 E_angle  =         0.0000 
E_dihed  =         0.0000 E_impro  =         0.0000 E_vdwl   =      4976.4405 
E_coul   =         0.0000 E_long   =         0.0000 Press    =    343569.8374 
MS2EC Module: pre force
MS2EC Module: post force
---------------- Step       57 ----- CPU =    209.4991 (sec) ----------------
TotEng   =      5394.4424 KinEng   =         0.0000 Temp     =         0.0000 
PotEng   =      5394.4424 E_bond   =         0.0000 E_angle  =         0.0000 
E_dihed  =         0.0000 E_impro  =         0.0000 E_vdwl   =      5394.4424 
E_coul   =         0.0000 E_long   =         0.0000 Press    =    372365.1949 
MS2EC Module: pre force
MS2EC Module: post force
---------------- Step       58 ----- CPU =    213.1455 (sec) ----------------
TotEng   =      6274.2338 KinEng   =         0.0000 Temp     =         0.0000 
PotEng   =      6274.2338 E_bond   =         0.0000 E_angle  =         0.0000 
E_dihed  =         0.0000 E_impro  =         0.0000 E_vdwl   =      6274.2338 
E_coul   =         0.0000 E_long   =         0.0000 Press    =    432965.7177 
MS2EC Module: pre force
MS2EC Module: post force
---------------- Step       59 ----- CPU =    216.9600 (sec) ----------------
TotEng   =      7375.3277 KinEng   =         0.0000 Temp     =         0.0000 
PotEng   =      7375.3277 E_bond   =         0.0000 E_angle  =         0.0000 
E_dihed  =         0.0000 E_impro  =         0.0000 E_vdwl   =      7375.3277 
E_coul   =         0.0000 E_long   =         0.0000 Press    =    508802.4486 
MS2EC Module: pre force
MS2EC Module: post force
---------------- Step       60 ----- CPU =    220.6048 (sec) ----------------
TotEng   =      8282.7071 KinEng   =         0.0000 Temp     =         0.0000 
PotEng   =      8282.7071 E_bond   =         0.0000 E_angle  =         0.0000 
E_dihed  =         0.0000 E_impro  =         0.0000 E_vdwl   =      8282.7071 
E_coul   =         0.0000 E_long   =         0.0000 Press    =    571292.2617 
MS2EC Module: pre force
MS2EC Module: post force
---------------- Step       61 ----- CPU =    224.2452 (sec) ----------------
TotEng   =      8577.4402 KinEng   =         0.0000 Temp     =         0.0000 
PotEng   =      8577.4402 E_bond   =         0.0000 E_angle  =         0.0000 
E_dihed  =         0.0000 E_impro  =         0.0000 E_vdwl   =      8577.4402 
E_coul   =         0.0000 E_long   =         0.0000 Press    =    591587.1845 
MS2EC Module: pre force
MS2EC Module: post force
---------------- Step       62 ----- CPU =    228.0652 (sec) ----------------
TotEng   =      8060.6700 KinEng   =         0.0000 Temp     =         0.0000 
PotEng   =      8060.6700 E_bond   =         0.0000 E_angle  =         0.0000 
E_dihed  =         0.0000 E_impro  =         0.0000 E_vdwl   =      8060.6700 
E_coul   =         0.0000 E_long   =         0.0000 Press    =    555998.3554 
MS2EC Module: pre force
MS2EC Module: post force
---------------- Step       63 ----- CPU =    231.6992 (sec) ----------------
TotEng   =      6998.9793 KinEng   =         0.0000 Temp     =         0.0000 
PotEng   =      6998.9793 E_bond   =         0.0000 E_angle  =         0.0000 
E_dihed  =         0.0000 E_impro  =         0.0000 E_vdwl   =      6998.9793 
E_coul   =         0.0000 E_long   =         0.0000 Press    =    482882.4886 
MS2EC Module: pre force
MS2EC Module: post force
---------------- Step       64 ----- CPU =    235.3503 (sec) ----------------
TotEng   =      5949.6966 KinEng   =         0.0000 Temp     =         0.0000 
PotEng   =      5949.6966 E_bond   =         0.0000 E_angle  =         0.0000 
E_dihed  =         0.0000 E_impro  =         0.0000 E_vdwl   =      5949.6966 
E_coul   =         0.0000 E_long   =         0.0000 Press    =    410614.2797 
MS2EC Module: pre force
MS2EC Module: post force
---------------- Step       65 ----- CPU =    238.9961 (sec) ----------------
TotEng   =      5292.7330 KinEng   =         0.0000 Temp     =         0.0000 
PotEng   =      5292.7330 E_bond   =         0.0000 E_angle  =         0.0000 
E_dihed  =         0.0000 E_impro  =         0.0000 E_vdwl   =      5292.7330 
E_coul   =         0.0000 E_long   =         0.0000 Press    =    365360.7641 
MS2EC Module: pre force
MS2EC Module: post force
---------------- Step       66 ----- CPU =    242.6385 (sec) ----------------
TotEng   =      5124.5140 KinEng   =         0.0000 Temp     =         0.0000 
PotEng   =      5124.5140 E_bond   =         0.0000 E_angle  =         0.0000 
E_dihed  =         0.0000 E_impro  =         0.0000 E_vdwl   =      5124.5140 
E_coul   =         0.0000 E_long   =         0.0000 Press    =    353771.5884 
MS2EC Module: pre force
MS2EC Module: post force
---------------- Step       67 ----- CPU =    246.2870 (sec) ----------------
TotEng   =      5415.7101 KinEng   =         0.0000 Temp     =         0.0000 
PotEng   =      5415.7101 E_bond   =         0.0000 E_angle  =         0.0000 
E_dihed  =         0.0000 E_impro  =         0.0000 E_vdwl   =      5415.7101 
E_coul   =         0.0000 E_long   =         0.0000 Press    =    373830.9849 
MS2EC Module: pre force
MS2EC Module: post force
---------------- Step       68 ----- CPU =    249.9289 (sec) ----------------
TotEng   =      6080.1874 KinEng   =         0.0000 Temp     =         0.0000 
PotEng   =      6080.1874 E_bond   =         0.0000 E_angle  =         0.0000 
E_dihed  =         0.0000 E_impro  =         0.0000 E_vdwl   =      6080.1874 
E_coul   =         0.0000 E_long   =         0.0000 Press    =    419603.3554 
MS2EC Module: pre force
MS2EC Module: post force
---------------- Step       69 ----- CPU =    253.5734 (sec) ----------------
TotEng   =      6959.6926 KinEng   =         0.0000 Temp     =         0.0000 
PotEng   =      6959.6926 E_bond   =         0.0000 E_angle  =         0.0000 
E_dihed  =         0.0000 E_impro  =         0.0000 E_vdwl   =      6959.6926 
E_coul   =         0.0000 E_long   =         0.0000 Press    =    480181.7963 
MS2EC Module: pre force
MS2EC Module: post force
---------------- Step       70 ----- CPU =    257.2180 (sec) ----------------
TotEng   =      7760.6157 KinEng   =         0.0000 Temp     =         0.0000 
PotEng   =      7760.6157 E_bond   =         0.0000 E_angle  =         0.0000 
E_dihed  =         0.0000 E_impro  =         0.0000 E_vdwl   =      7760.6157 
E_coul   =         0.0000 E_long   =         0.0000 Press    =    535339.7219 
MS2EC Module: pre force
MS2EC Module: post force
---------------- Step       71 ----- CPU =    260.8555 (sec) ----------------
TotEng   =      8055.5653 KinEng   =         0.0000 Temp     =         0.0000 
PotEng   =      8055.5653 E_bond   =         0.0000 E_angle  =         0.0000 
E_dihed  =         0.0000 E_impro  =         0.0000 E_vdwl   =      8055.5653 
E_coul   =         0.0000 E_long   =         0.0000 Press    =    555647.7873 
MS2EC Module: pre force
MS2EC Module: post force
---------------- Step       72 ----- CPU =    264.4898 (sec) ----------------
TotEng   =      7585.1009 KinEng   =         0.0000 Temp     =         0.0000 
PotEng   =      7585.1009 E_bond   =         0.0000 E_angle  =         0.0000 
E_dihed  =         0.0000 E_impro  =         0.0000 E_vdwl   =      7585.1009 
E_coul   =         0.0000 E_long   =         0.0000 Press    =    523247.1890 
MS2EC Module: pre force
MS2EC Module: post force
---------------- Step       73 ----- CPU =    268.1211 (sec) ----------------
TotEng   =      6611.2087 KinEng   =         0.0000 Temp     =         0.0000 
PotEng   =      6611.2087 E_bond   =         0.0000 E_angle  =         0.0000 
E_dihed  =         0.0000 E_impro  =         0.0000 E_vdwl   =      6611.2087 
E_coul   =         0.0000 E_long   =         0.0000 Press    =    456176.2679 
MS2EC Module: pre force
MS2EC Module: post force
---------------- Step       74 ----- CPU =    271.7487 (sec) ----------------
TotEng   =      5657.4370 KinEng   =         0.0000 Temp     =         0.0000 
PotEng   =      5657.4370 E_bond   =         0.0000 E_angle  =         0.0000 
E_dihed  =         0.0000 E_impro  =         0.0000 E_vdwl   =      5657.4370 
E_coul   =         0.0000 E_long   =         0.0000 Press    =    390483.5014 
MS2EC Module: pre force
MS2EC Module: post force
---------------- Step       75 ----- CPU =    275.3784 (sec) ----------------
TotEng   =      5062.3586 KinEng   =         0.0000 Temp     =         0.0000 
PotEng   =      5062.3586 E_bond   =         0.0000 E_angle  =         0.0000 
E_dihed  =         0.0000 E_impro  =         0.0000 E_vdwl   =      5062.3586 
E_coul   =         0.0000 E_long   =         0.0000 Press    =    349490.2012 
MS2EC Module: pre force
MS2EC Module: post force
---------------- Step       76 ----- CPU =    279.0467 (sec) ----------------
TotEng   =      4910.5398 KinEng   =         0.0000 Temp     =         0.0000 
PotEng   =      4910.5398 E_bond   =         0.0000 E_angle  =         0.0000 
E_dihed  =         0.0000 E_impro  =         0.0000 E_vdwl   =      4910.5398 
E_coul   =         0.0000 E_long   =         0.0000 Press    =    339029.5486 
MS2EC Module: pre force
MS2EC Module: post force
---------------- Step       77 ----- CPU =    282.6766 (sec) ----------------
TotEng   =      5171.5090 KinEng   =         0.0000 Temp     =         0.0000 
PotEng   =      5171.5090 E_bond   =         0.0000 E_angle  =         0.0000 
E_dihed  =         0.0000 E_impro  =         0.0000 E_vdwl   =      5171.5090 
E_coul   =         0.0000 E_long   =         0.0000 Press    =    357007.2240 
MS2EC Module: pre force
MS2EC Module: post force
---------------- Step       78 ----- CPU =    286.3107 (sec) ----------------
TotEng   =      5779.4998 KinEng   =         0.0000 Temp     =         0.0000 
PotEng   =      5779.4998 E_bond   =         0.0000 E_angle  =         0.0000 
E_dihed  =         0.0000 E_impro  =         0.0000 E_vdwl   =      5779.4998 
E_coul   =         0.0000 E_long   =         0.0000 Press    =    398890.9623 
MS2EC Module: pre force
MS2EC Module: post force
---------------- Step       79 ----- CPU =    289.9435 (sec) ----------------
TotEng   =      6628.7621 KinEng   =         0.0000 Temp     =         0.0000 
PotEng   =      6628.7621 E_bond   =         0.0000 E_angle  =         0.0000 
E_dihed  =         0.0000 E_impro  =         0.0000 E_vdwl   =      6628.7621 
E_coul   =         0.0000 E_long   =         0.0000 Press    =    457389.4639 
MS2EC Module: pre force
MS2EC Module: post force
---------------- Step       80 ----- CPU =    293.5756 (sec) ----------------
TotEng   =      7499.4363 KinEng   =         0.0000 Temp     =         0.0000 
PotEng   =      7499.4363 E_bond   =         0.0000 E_angle  =         0.0000 
E_dihed  =         0.0000 E_impro  =         0.0000 E_vdwl   =      7499.4363 
E_coul   =         0.0000 E_long   =         0.0000 Press    =    517353.2128 
MS2EC Module: pre force
MS2EC Module: post force
---------------- Step       81 ----- CPU =    297.2062 (sec) ----------------
TotEng   =      7984.4041 KinEng   =         0.0000 Temp     =         0.0000 
PotEng   =      7984.4041 E_bond   =         0.0000 E_angle  =         0.0000 
E_dihed  =         0.0000 E_impro  =         0.0000 E_vdwl   =      7984.4041 
E_coul   =         0.0000 E_long   =         0.0000 Press    =    550747.4914 
MS2EC Module: pre force
MS2EC Module: post force
---------------- Step       82 ----- CPU =    300.8439 (sec) ----------------
TotEng   =      7740.7511 KinEng   =         0.0000 Temp     =         0.0000 
PotEng   =      7740.7511 E_bond   =         0.0000 E_angle  =         0.0000 
E_dihed  =         0.0000 E_impro  =         0.0000 E_vdwl   =      7740.7511 
E_coul   =         0.0000 E_long   =         0.0000 Press    =    533967.1418 
MS2EC Module: pre force
MS2EC Module: post force
---------------- Step       83 ----- CPU =    304.4749 (sec) ----------------
TotEng   =      6936.2244 KinEng   =         0.0000 Temp     =         0.0000 
PotEng   =      6936.2244 E_bond   =         0.0000 E_angle  =         0.0000 
E_dihed  =         0.0000 E_impro  =         0.0000 E_vdwl   =      6936.2244 
E_coul   =         0.0000 E_long   =         0.0000 Press    =    478562.8693 
MS2EC Module: pre force
MS2EC Module: post force
---------------- Step       84 ----- CPU =    308.1019 (sec) ----------------
TotEng   =      6078.6981 KinEng   =         0.0000 Temp     =         0.0000 
PotEng   =      6078.6981 E_bond   =         0.0000 E_angle  =         0.0000 
E_dihed  =         0.0000 E_impro  =         0.0000 E_vdwl   =      6078.6981 
E_coul   =         0.0000 E_long   =         0.0000 Press    =    419501.9803 
MS2EC Module: pre force
MS2EC Module: post force
---------------- Step       85 ----- CPU =    311.7300 (sec) ----------------
TotEng   =      5518.1248 KinEng   =         0.0000 Temp     =         0.0000 
PotEng   =      5518.1248 E_bond   =         0.0000 E_angle  =         0.0000 
E_dihed  =         0.0000 E_impro  =         0.0000 E_vdwl   =      5518.1248 
E_coul   =         0.0000 E_long   =         0.0000 Press    =    380887.1226 
MS2EC Module: pre force
MS2EC Module: post force
---------------- Step       86 ----- CPU =    315.3687 (sec) ----------------
TotEng   =      5338.7335 KinEng   =         0.0000 Temp     =         0.0000 
PotEng   =      5338.7335 E_bond   =         0.0000 E_angle  =         0.0000 
E_dihed  =         0.0000 E_impro  =         0.0000 E_vdwl   =      5338.7335 
E_coul   =         0.0000 E_long   =         0.0000 Press    =    368527.7558 
MS2EC Module: pre force
MS2EC Module: post force
---------------- Step       87 ----- CPU =    318.9966 (sec) ----------------
TotEng   =      5514.4509 KinEng   =         0.0000 Temp     =         0.0000 
PotEng   =      5514.4509 E_bond   =         0.0000 E_angle  =         0.0000 
E_dihed  =         0.0000 E_impro  =         0.0000 E_vdwl   =      5514.4509 
E_coul   =         0.0000 E_long   =         0.0000 Press    =    380632.9140 
MS2EC Module: pre force
MS2EC Module: post force
---------------- Step       88 ----- CPU =    322.6267 (sec) ----------------
TotEng   =      6010.5485 KinEng   =         0.0000 Temp     =         0.0000 
PotEng   =      6010.5485 E_bond   =         0.0000 E_angle  =         0.0000 
E_dihed  =         0.0000 E_impro  =         0.0000 E_vdwl   =      6010.5485 
E_coul   =         0.0000 E_long   =         0.0000 Press    =    414807.6898 
MS2EC Module: pre force
MS2EC Module: post force
---------------- Step       89 ----- CPU =    326.2581 (sec) ----------------
TotEng   =      6761.7944 KinEng   =         0.0000 Temp     =         0.0000 
PotEng   =      6761.7944 E_bond   =         0.0000 E_angle  =         0.0000 
E_dihed  =         0.0000 E_impro  =         0.0000 E_vdwl   =      6761.7944 
E_coul   =         0.0000 E_long   =         0.0000 Press    =    466550.7529 
MS2EC Module: pre force
MS2EC Module: post force
---------------- Step       90 ----- CPU =    329.8955 (sec) ----------------
TotEng   =      7526.8500 KinEng   =         0.0000 Temp     =         0.0000 
PotEng   =      7526.8500 E_bond   =         0.0000 E_angle  =         0.0000 
E_dihed  =         0.0000 E_impro  =         0.0000 E_vdwl   =      7526.8500 
E_coul   =         0.0000 E_long   =         0.0000 Press    =    519236.2906 
MS2EC Module: pre force
MS2EC Module: post force
---------------- Step       91 ----- CPU =    333.5304 (sec) ----------------
TotEng   =      7850.3919 KinEng   =         0.0000 Temp     =         0.0000 
PotEn