388
Atoms. Timestep: 0
1 7.93 7.93 7.93
2 7.4133 7.8927 8.82247
2 8.2342 6.9953 7.95914
2 7.12361 8.0884 7.3436
3 13.5897 1.84391 1.936
4 13.5826 2.41496 2.7042
4 12.679 1.35159 1.9954
3 1.37063 8.4468 9.2267
4 0.97581 7.8745 8.56885
4 1.50027 9.27979 8.77335
3 0.21172 1.15781 7.74305
4 0.67709 0.32735 7.843
4 15.1568 0.94373 7.92577
3 7.9905 9.40799 2.3996
4 8.6215 9.94499 2.8788
4 7.6698 8.7797 3.0466
3 7.1652 0.75953 14.393
4 7.144 0.28833 15.226
4 7.1776 1.68407 14.6407
3 12.1431 11.2834 8.34184
4 12.4681 10.7213 9.04524
4 11.9863 10.6861 7.61047
3 11.0986 3.41272 0.4597
4 10.339 3.01522 0.8855
4 11.7773 2.73914 0.5022
3 6.65541 15.8087 11.6505
4 7.4808 15.4053 11.3819
4 6.66081 15.7532 12.606
3 13.2704 3.05181 4.7747
4 13.1124 2.22688 5.2338
4 12.3046 3.40562 4.6093
3 2.15581 11.1981 9.26773
4 2.28571 11.277 8.32269
4 2.96791 10.8071 9.58985
3 4.89691 0.29145 4.4954
4 5.07851 0.36207 3.5582
4 5.02891 15.2249 4.6963
3 4.95141 9.23279 14.448
4 5.18161 10.0469 14.8958
4 4.05121 9.36789 14.1522
3 2.64221 6.8315 15.3808
4 2.49491 6.2822 0.2907
4 3.58861 6.7996 15.2408
3 2.85161 12.409 14.4307
4 2.92681 12.1054 15.3354
4 3.75331 12.4352 14.1106
3 10.9344 0.82216 1.787
4 10.7348 0.36615 2.6046
4 10.5736 0.25791 1.1032
3 12.8932 7.1473 8.17195
4 12.4971 7.8016 7.59639
4 13.0615 7.5872 9.01865
3 2.12451 1.52905 0.9877
4 2.97261 1.92871 0.7947
4 1.94286 1.77777 1.894
3 7.7479 13.6405 6.98849
4 8.7046 13.6549 6.96148
4 7.5224 14.1417 7.77221
3 5.59381 13.2189 10.2297
4 5.33421 12.5134 9.63717
4 5.81431 13.949 9.65134
3 11.9173 6.1408 5.1676
4 11.2539 6.8262 5.087
4 11.4155 5.3314 5.2638
3 12.6025 9.91309 10.6136
4 11.8448 9.37789 10.3776
4 12.323 10.3947 11.3922
3 9.7622 7.9245 5.572
4 9.5129 8.1241 6.4743
4 8.9474 8.0004 5.0755
3 7.4207 15.5725 8.73032
4 7.05451 0.54684 9.02347
4 8.1899 15.44 9.28445
3 8.0798 3.16795 2.4816
4 7.6399 2.95005 1.6598
4 7.3967 3.08972 3.1475
3 4.39861 2.75194 13.468
4 3.65251 3.31975 13.2754
4 4.11281 1.87966 13.1967
3 2.25661 4.804 13.2797
4 2.18321 5.3791 14.0413
4 1.44835 4.2912 13.2874
3 11.832 3.58929 12.1252
4 11.9026 4.2287 11.4165
4 11.8774 2.73945 11.6872
3 1.60901 14.8121 8.47956
4 1.54784 14.351 7.64302
4 1.17744 14.2312 9.106
3 5.67431 7.2442 12.5398
4 4.78971 7.1893 12.1784
4 5.62501 7.9458 13.1892
3 3.53061 14.0244 1.0911
4 2.82741 14.5304 0.6841
4 3.23091 13.8753 1.9879
3 0.99009 13.1505 6.2765
4 1.07289 13.5749 5.4225
4 0.09898 12.8011 6.2855
3 10.2265 8.8357 9.59947
4 9.6751 9.0903 8.85961
4 9.6253 8.4126 10.2124
3 5.56691 6.5948 0.1289
4 6.36141 6.4513 0.6433
4 5.47571 7.5468 0.0889
3 8.4078 7.7415 11.3879
4 8.8061 7.1414 12.0183
4 7.47 7.5572 11.4407
3 5.06471 0.44853 1.8375
4 4.90611 1.17698 1.2371
4 4.49971 15.6057 1.5166
3 10.6088 3.75435 4.7336
4 9.9571 3.99274 5.3929
4 10.1133 3.69533 3.9168
3 2.77081 0.62085 12.6499
4 2.25931 1.21149 12.0969
4 2.83601 15.6725 12.1414
3 3.44301 10.0353 1.3414
4 2.97561 10.1487 2.169
4 2.76671 9.76919 0.7185
3 11.086 1.42492 10.543
4 10.5921 1.63996 9.75181
4 10.6458 0.65278 10.8983
3 3.09721 6.8319 11.4329
4 2.31831 7.0621 10.9263
4 2.87941 5.9936 11.8404
3 4.49271 2.88931 0.1505
4 4.47731 2.80453 15.0572
4 4.03751 3.71292 0.3256
3 11.1514 12.622 4.3464
4 10.8775 13.466 4.7052
4 11.9995 12.451 4.7558
3 15.43 6.2901 12.0877
4 15.6291 5.4397 11.696
4 15.34 6.8829 11.3416
3 15.7969 13.8673 13.3102
4 0.46886 14.3913 13.909
4 0.56624 13.3026 12.8615
3 13.2228 7.954 14.9444
4 14.1709 8.079 14.9027
4 12.8599 8.4324 15.7279
3 9.9739 12.3358 9.93776
4 10.7761 12.0205 9.52149
4 9.65 11.5843 10.4344
3 15.1582 15.5385 3.7436
4 15.4028 15.2815 2.8546
4 14.9329 0.60601 3.6719
3 7.2245 3.22074 15.4466
4 7.3996 4.1132 15.1481
4 6.31601 3.24219 15.7474
3 7.6044 5.5778 13.9944
4 6.86361 6.1831 13.9615
4 7.6721 5.233 13.1041
3 1.47793 9.98219 3.5106
4 0.8794 10.2067 4.2231
4 1.17057 9.1313 3.1981
3 8.5045 15.5457 3.831
4 8.2578 15.6942 2.9182
4 7.7228 15.1661 4.2323
3 13.5349 12.9834 14.6632
4 13.2543 12.1566 14.2711
4 14.3923 13.1549 14.2738
3 7.6481 5.8573 1.7122
4 7.6326 4.9077 1.8317
4 8.4804 6.0302 1.2721
3 0.5306 4.1096 0.6392
4 15.4646 4.3503 0.6672
4 0.5877 3.45641 15.8017
3 10.0478 5.2739 9.29665
4 9.5051 5.1121 10.0683
4 10.8134 5.7383 9.63478
3 13.8569 6.2467 2.7945
4 13.7466 5.7167 2.005
4 13.3353 5.7977 3.4597
3 0.52004 7.159 3.4486
4 15.5307 6.8898 3.0987
4 1.12584 6.4765 3.1598
3 8.6456 4.668 11.44
4 8.2157 3.81329 11.4696
4 9.1655 4.703 12.2431
3 12.2297 14.335 12.0962
4 12.7656 15.2167 12.0224
4 12.4717 13.9589 12.9425
3 3.91591 6.4951 6.90025
4 4.62121 5.9062 6.5401
4 3.87131 7.1493 6.1108
3 11.6718 0.44377 14.6873
4 12.4801 0.007003 14.9558
4 11.9413 1.33692 14.4733
3 14.5993 5.3686 6.1637
4 13.8754 5.9493 6.3982
4 14.2068 4.7198 5.5795
3 3.53331 11.1577 6.94574
4 4.44101 11.2932 7.21745
4 3.25281 12.0101 6.5204
3 3.23811 14.046 11.3713
4 4.03431 13.716 10.955
4 2.52781 13.7403 10.8071
3 13.3158 12.2326 1.3375
4 13.4259 12.5035 0.4261
4 14.2086 12.1387 1.6695
3 5.98631 11.4641 12.2851
4 5.89281 12.2575 11.7577
4 6.07041 11.782 13.184
3 9.534 15.1118 13.6335
4 10.3847 15.4744 13.8809
4 8.8963 15.7241 14.0004
3 9.243 15.1478 10.6907
4 9.6963 14.3206 10.2783
4 9.4156 14.9499 11.6262
3 6.15681 10.866 1.0972
4 5.35591 10.4526 1.4195
4 6.86411 10.3244 1.4473
3 8.7688 10.7956 11.9423
4 8.6694 9.84629 12.0134
4 7.8917 11.1418 12.1073
3 10.3947 13.0239 1.6827
4 11.2267 12.6878 1.3497
4 10.386 12.7714 2.6059
3 12.0588 6.4024 11.2336
4 11.5901 7.0252 11.7892
4 13.0688 6.4984 11.487
3 11.9757 9.40829 6.4287
4 12.7715 9.29919 5.9081
4 11.2934 8.9723 5.9182
3 10.3322 14.8188 5.7681
4 11.0401 15.5328 5.6001
4 9.7295 14.937 5.0339
3 2.78981 2.05654 3.928
4 1.94939 1.95793 4.3754
4 3.37031 1.43567 4.3682
3 13.2801 15.8349 9.21261
4 13.4224 14.8411 9.50011
4 12.3636 0.23119 9.62577
3 15.7725 4.014 10.4392
4 0.49984 4.03729 9.68377
4 14.9002 4.1496 10.0693
3 0.96982 10.371 15.4324
4 1.44078 10.8353 14.7404
4 0.66139 9.56679 15.0148
3 4.62901 7.7652 9.23486
4 4.27551 7.5177 8.38046
4 4.17051 7.2004 9.85702
3 2.42461 5.1399 2.3507
4 2.76161 4.6185 3.0793
4 1.85 4.5416 1.873
3 3.60171 8.721 5.3609
4 4.00711 9.208 6.0783
4 3.64141 9.31739 4.6134
3 6.08331 12.6039 14.784
4 6.89331 13.0876 14.9457
4 6.00351 12.0124 15.5323
3 9.1808 4.6422 6.5879
4 9.0597 3.80276 7.12378
4 9.6744 5.1745 7.30382
3 0.70726 2.75373 14.1128
4 15.6312 2.65179 13.9407
4 1.02884 1.85958 14.2282
3 2.19251 4.804 8.83872
4 2.97831 4.4522 9.25687
4 2.52231 5.3163 8.10048
3 14.0406 12.2849 6.0989
4 14.2672 11.3808 5.8811
4 13.663 12.2328 7.06896
3 0.34857 2.49965 5.1043
4 0.40698 2.1637 5.9987
4 15.5751 3.21529 5.1576
3 11.1308 8.0364 13.1614
4 10.655 8.7778 13.5358
4 11.9601 8.0176 13.6392
3 6.88001 2.55341 11.8766
4 6.27921 2.9609 12.5006
4 6.82011 1.6164 12.0629
3 7.4443 13.0066 2.2816
4 8.2825 12.6621 1.9734
4 6.79441 12.3849 1.9542
3 9.6357 6.7003 15.8522
4 9.2166 6.0604 15.2767
4 10.4723 6.2994 0.2279
3 13.7262 5.363 0.1759
4 13.8006 4.6788 15.3707
4 13.5834 6.1677 15.5376
3 5.39321 2.30802 6.2995
4 6.33621 2.24789 6.4525
4 5.21701 1.65095 5.6261
3 4.04371 1.60805 9.34963
4 4.30681 1.07627 10.1008
4 3.39871 1.07097 8.8895
3 9.9052 3.92918 13.9489
4 10.574 3.88259 13.2658
4 10.3396 3.59389 14.7332
3 13.6538 13.1586 9.7726
4 13.133 13.1201 10.5748
4 13.1228 12.7024 9.11973
3 0.88827 13.0533 10.4897
4 15.8127 12.8778 10.3894
4 1.31854 12.316 10.0567
3 9.792 10.153 14.9035
4 9.2244 9.53729 15.3672
4 9.3017 10.9751 14.8994
3 6.05201 11.0694 8.00642
4 6.65861 10.5288 8.51233
4 6.59651 11.7709 7.64905
3 0.51933 14.7388 1.3084
4 0.93175 15.164 0.5115
4 0.40468 13.8025 1.1458
3 8.0583 1.8523 6.0032
4 8.1762 1.48492 6.97117
4 8.0693 1.09268 5.4209
3 4.13211 10.1016 10.6461
4 4.52011 9.39359 10.1319
4 4.86211 10.459 11.1517
3 5.69311 3.785 3.6737
4 5.30561 3.39361 4.4565
4 5.43211 4.7052 3.7111
3 13.244 4.3098 9.58766
4 13.0715 3.52185 9.07236
4 13.0166 5.0332 9.00345
3 14.5598 0.27874 12.3529
4 14.9007 15.364 12.7997
4 15.2285 0.49453 11.7028
3 1.85986 14.8854 14.7824
4 2.31051 14.0613 14.5982
4 2.21741 15.5944 14.1438
3 9.0386 12.9335 15.1088
4 9.5116 13.1074 0.0626
4 9.3088 13.6374 14.5191
3 0.111 7.9051 14.3198
4 15.8246 7.3618 13.5454
4 0.88177 7.5226 14.7391
3 6.73321 2.3828 9.14002
4 6.62931 2.45248 10.089
4 5.85621 2.54003 8.7903
3 0.09637 11.6355 1.8738
4 0.19991 11.203 1.0261
4 0.55511 11.066 2.4914
3 0.75491 1.31126 10.8249
4 0.69488 2.25981 10.7114
4 1.22326 1.00576 10.048
3 4.65231 6.4291 3.263
4 5.08231 7.1946 2.8818
4 3.87901 6.291 2.7161
3 13.1218 0.29526 5.9778
4 13.8302 15.7088 5.5139
4 12.9944 15.64 6.86636
3 11.9449 11.3415 13.1093
4 11.3292 11.7125 12.4775
4 11.4295 10.7004 13.5987
3 11.7436 9.80949 1.2205
4 12.0746 10.6956 1.3669
4 11.1229 9.90149 0.4977
3 7.5378 15.4677 0.9758
4 7.6998 14.4379 1.0781
4 6.68191 15.6089 1.3805
3 14.4778 0.140283 15.5053
4 14.4207 0.9396 0.1687
4 14.5726 15.2982 0.2888
3 6.25851 13.6639 4.6504
4 6.69951 13.4651 5.4764
4 6.75321 13.1773 3.9911
3 13.7563 2.75419 13.8123
4 13.1811 3.19013 13.1837
4 13.8504 1.86369 13.4741
3 6.16351 4.9912 6.4874
4 5.73701 4.1375 6.5616
4 7.09851 4.7899 6.4505
3 2.68941 9.58259 13.2405
4 3.11041 9.77549 12.4029
4 2.10011 8.8526 13.0505
3 1.98738 14.157 3.7895
4 2.59421 14.8587 4.0251
4 1.26047 14.6038 3.3558
3 14.6775 8.1558 10.4273
4 14.1849 8.9613 10.5845
4 15.4549 8.4399 9.94653
3 7.4095 6.9907 4.2057
4 7.6852 6.3108 4.8204
4 7.466 6.5739 3.3458
3 0.24688 7.5027 6.6536
4 15.578 6.717 6.5154
4 0.96943 7.4182 6.0315
3 12.7542 8.7223 3.4519
4 12.3048 8.9458 2.6368
4 13.3435 7.9316 3.2427
3 14.6945 9.82069 5.0609
4 14.0384 9.59709 4.4008
4 14.9294 8.9826 5.4593
3 9.3886 2.58736 8.5857
4 9.5478 3.49686 8.83807
4 8.4965 2.40845 8.88301
388
Atoms. Timestep: 1
1 7.92988 7.93069 7.93052
2 7.4142 7.89544 8.82486
2 8.23618 6.98537 7.95483
2 7.12197 8.08579 7.3383
3 13.585 1.8417 1.93677
4 13.5893 2.41703 2.70177
4 12.7456 1.38424 1.98527
3 1.37046 8.44669 9.2267
4 0.976679 7.87482 8.56782
4 1.50109 9.27993 8.77407
3 0.211687 1.15782 7.74295
4 0.677301 0.327629 7.84401
4 15.157 0.943863 7.92662
3 7.9904 9.40809 2.39965
4 8.62235 9.94407 2.87881
4 7.67049 8.77879 3.04608
3 7.16519 0.759469 14.393
4 7.14479 0.288476 15.2261
4 7.17844 1.68407 14.6403
3 12.1432 11.2834 8.34187
4 12.4676 10.7212 9.04532
4 11.9859 10.6863 7.61054
3 11.0985 3.41266 0.459642
4 10.3393 3.01528 0.886159
4 11.7778 2.73963 0.503073
3 6.65539 15.8087 11.6506
4 7.48082 15.4054 11.3817
4 6.66106 15.7528 12.6061
3 13.2645 3.05296 4.7742
4 13.1273 2.22507 5.23465
4 12.3822 3.38915 4.61693
3 2.15575 11.1982 9.26761
4 2.28723 11.2762 8.3227
4 2.96696 10.8065 9.59124
3 4.89685 0.291419 4.49543
4 5.07823 0.362626 3.55827
4 5.03036 15.225 4.696
3 4.9515 9.23271 14.4481
4 5.1815 10.0468 14.8959
4 4.05146 9.3679 14.1516
3 2.64216 6.8314 15.3808
4 2.49484 6.28271 0.291138
4 3.58861 6.79994 15.2412
3 2.85161 12.409 14.4308
4 2.92732 12.1059 15.3355
4 3.75318 12.4354 14.1103
3 10.9345 0.822136 1.78705
4 10.7338 0.36629 2.60445
4 10.5736 0.258287 1.10293
3 12.8936 7.14601 8.17212
4 12.4983 7.81259 7.6103
4 13.0533 7.59552 9.00198
3 2.12457 1.52903 0.987723
4 2.97243 1.92902 0.794407
4 1.94297 1.77769 1.89405
3 7.74788 13.6403 6.98851
4 8.70455 13.6554 6.96071
4 7.52253 14.1437 7.77083
3 5.59372 13.2189 10.2297
4 5.33486 12.5135 9.63662
4 5.81502 13.9492 9.65182
3 11.9173 6.1408 5.16758
4 11.254 6.82623 5.0875
4 11.4156 5.33127 5.26325
3 12.6024 9.91312 10.6135
4 11.8447 9.37785 10.378
4 12.3238 10.3938 11.393
3 9.76224 7.92458 5.57202
4 9.5125 8.12373 6.47435
4 8.94737 7.99936 5.0754
3 7.42073 15.5725 8.73037
4 7.05411 0.546888 9.02294
4 8.18939 15.4403 9.28528
3 8.07981 3.16798 2.48156
4 7.64055 2.94922 1.65972
4 7.3962 3.09053 3.14707
3 4.39857 2.75193 13.4679
4 3.65284 3.32021 13.2751
4 4.11216 1.87981 13.1966
3 2.25667 4.80404 13.2796
4 2.1833 5.37937 14.0411
4 1.44901 4.29038 13.2882
3 11.832 3.58923 12.1252
4 11.9037 4.22939 11.4172
4 11.8761 2.73982 11.6861
3 1.60897 14.8121 8.47948
4 1.5478 14.3501 7.6434
4 1.17804 14.2314 9.10665
3 5.67434 7.24428 12.5398
4 4.78991 7.18868 12.178
4 5.62433 7.94577 13.1892
3 3.53064 14.0245 1.0912
4 2.82726 14.5299 0.683674
4 3.23009 13.8744 1.98752
3 0.990057 13.1506 6.27654
4 1.07375 13.574 5.42216
4 0.0989518 12.8012 6.28497
3 10.2265 8.83581 9.59955
4 9.67514 9.08905 8.85921
4 9.62561 8.41205 10.2124
3 5.56681 6.59485 0.128898
4 6.36106 6.45085 0.643346
4 5.47653 7.54691 0.0882443
3 8.40774 7.74158 11.3879
4 8.80663 7.14145 12.0179
4 7.47002 7.55697 11.4411
3 5.06475 0.448448 1.83745
4 4.90601 1.17736 1.23769
4 4.49974 15.6058 1.51606
3 10.6089 3.75433 4.73339
4 9.95755 3.99251 5.39308
4 10.1129 3.69457 3.91694
3 2.77083 0.620853 12.6499
4 2.25805 1.21036 12.0969
4 2.83677 15.6722 12.1421
3 3.44301 10.0353 1.34146
4 2.97537 10.1489 2.16888
4 2.76688 9.76946 0.718221
3 11.0861 1.42481 10.5429
4 10.5919 1.6411 9.75223
4 10.6448 0.653265 10.8982
3 3.09724 6.83186 11.4329
4 2.31855 7.06228 10.9262
4 2.87877 5.99401 11.8409
3 4.49269 2.88925 0.150611
4 4.47748 2.80472 15.0573
4 4.03807 3.71319 0.325766
3 11.1514 12.622 4.34634
4 10.8774 13.4654 4.7068
4 11.9996 12.4503 4.75539
3 15.4301 6.29005 12.0878
4 15.6286 5.43981 11.6954
4 15.3385 6.88303 11.342
3 15.7968 13.8672 13.3102
4 0.469147 14.3909 13.9091
4 0.566033 13.3031 12.8607
3 13.2201 7.95278 14.9433
4 14.1657 8.10148 14.9358
4 12.9083 8.42955 15.7125
3 9.97395 12.3359 9.93777
4 10.7753 12.0197 9.52049
4 9.64971 11.5849 10.4348
3 15.1582 15.5385 3.74358
4 15.4027 15.2814 2.85456
4 14.9334 0.606192 3.67188
3 7.22444 3.22074 15.4467
4 7.39984 4.11265 15.1468
4 6.31577 3.2428 15.7468
3 7.60431 5.57787 13.9944
4 6.86336 6.18296 13.9614
4 7.6722 5.23281 13.1042
3 1.47784 9.98216 3.51048
4 0.880167 10.2067 4.22366
4 1.17122 9.13036 3.19957
3 8.50448 15.5457 3.83106
4 8.25823 15.6945 2.91812
4 7.7226 15.1656 4.23163
3 13.535 12.9833 14.6633
4 13.2536 12.1575 14.2695
4 14.3918 13.1557 14.2729
3 7.64808 5.85732 1.71224
4 7.63359 4.90779 1.83229
4 8.48 6.03086 1.27176
3 0.530639 4.10962 0.639249
4 15.4647 4.35046 0.667138
4 0.587914 3.4568 15.8016
3 10.0478 5.27385 9.2966
4 9.50488 5.11268 10.0683
4 10.8133 5.73855 9.63457
3 13.8569 6.24675 2.79451
4 13.7463 5.71728 2.00481
4 13.335 5.79786 3.45953
3 0.520062 7.15907 3.44851
4 15.5306 6.88919 3.09958
4 1.12587 6.47646 3.15994
3 8.64563 4.66794 11.4401
4 8.21482 3.81368 11.4696
4 9.16567 4.70232 12.243
3 12.2316 14.3385 12.0953
4 12.732 15.1524 12.0361
4 12.4769 13.9671 12.9427
3 3.91938 6.49684 6.89231
4 4.59989 5.89341 6.59396
4 3.83707 7.13505 6.18368
3 11.6719 0.443756 14.6873
4 12.4803 0.00715769 14.9556
4 11.9412 1.337 14.4732
3 14.5992 5.36861 6.16365
4 13.8752 5.9489 6.39867
4 14.2067 4.71947 5.57985
3 3.53225 11.1588 6.94493
4 4.43974 11.3013 7.21403
4 3.27076 11.984 6.53629
3 3.23812 14.0462 11.3713
4 4.03418 13.7156 10.9551
4 2.52763 13.7394 10.8081
3 13.3157 12.2325 1.33747
4 13.4262 12.5044 0.426367
4 14.2084 12.1385 1.66984
3 5.9864 11.4641 12.2851
4 5.89255 12.2572 11.7574
4 6.0697 11.7824 13.184
3 9.53397 15.1118 13.6335
4 10.3845 15.4746 13.8811
4 8.89601 15.7243 13.9997
3 9.24718 15.1407 10.6917
4 9.65545 14.3878 10.2642
4 9.39099 14.9931 11.6264
3 6.15684 10.866 1.0972
4 5.35535 10.453 1.41857
4 6.86343 10.3235 1.44736
3 8.7688 10.7956 11.9423
4 8.6695 9.84616 12.013
4 7.89167 11.1415 12.1071
3 10.3946 13.0237 1.68268
4 11.2275 12.6894 1.34992
4 10.3871 12.7726 2.60633
3 12.0633 6.40224 11.2341
4 11.6027 7.02713 11.7941
4 12.9848 6.49877 11.4741
3 11.9757 9.40823 6.42872
4 12.7712 9.29966 5.9075
4 11.2931 8.97255 5.91838
3 10.3348 14.822 5.76661
4 11.0048 15.4895 5.61887
4 9.7231 14.9306 5.03844
3 2.78976 2.05652 3.92787
4 1.94962 1.95916 4.37609
4 3.37023 1.43601 4.3686
3 13.2767 15.8312 9.21568
4 13.4093 14.9205 9.47894
4 12.4321 0.210684 9.59713
3 15.7726 4.01397 10.4392
4 0.499713 4.03896 9.68363
4 14.9 4.14948 10.0697
3 0.969802 10.371 15.4324
4 1.441 10.835 14.7404
4 0.66113 9.56682 15.015
3 4.62906 7.76524 9.23483
4 4.27576 7.51678 8.38062
4 4.17041 7.20121 9.85752
3 2.4246 5.13991 2.35067
4 2.76123 4.61792 3.07898
4 1.84927 4.5424 1.87295
3 3.60186 8.7209 5.36093
4 4.00547 9.20916 6.07851
4 3.63997 9.31754 4.6134
3 6.08331 12.6038 14.784
4 6.89355 13.0873 14.945
4 6.00361 12.0129 15.5328
3 9.18355 4.64073 6.59702
4 9.03838 3.81363 7.05644
4 9.65003 5.18766 7.22907
3 0.70719 2.75371 14.1128
4 15.6311 2.65198 13.9405
4 1.0285 1.85949 14.2284
3 2.19251 4.80401 8.83873
4 2.97845 4.45185 9.25647
4 2.5222 5.31634 8.10045
3 14.0389 12.2848 6.10351
4 14.2661 11.3816 5.88249
4 13.6917 12.2338 6.99407
3 0.348623 2.49958 5.10437
4 0.406621 2.16367 5.99881
4 15.575 3.21505 5.15733
3 11.1309 8.0365 13.1613
4 10.6543 8.77691 13.5368
4 11.9595 8.01673 13.6401
3 6.87999 2.55357 11.8766
4 6.27892 2.96032 12.5007
4 6.82034 1.61637 12.0619
3 7.44431 13.0065 2.28155
4 8.28274 12.6623 1.97367
4 6.79464 12.3847 1.95367
3 9.63566 6.70019 15.8523
4 9.21699 6.06133 15.2754
4 10.4726 6.29936 0.226981
3 13.7263 5.36297 0.175879
4 13.7994 4.67871 15.3705
4 13.5828 6.16767 15.5378
3 5.39328 2.30809 6.29942
4 6.33632 2.24743 6.45184
4 5.21607 1.65039 5.62693
3 4.04368 1.60806 9.34969
4 4.30684 1.07593 10.1006
4 3.39904 1.07096 8.88906
3 9.90529 3.92916 13.9488
4 10.5748 3.88219 13.2663
4 10.3392 3.59516 14.7339
3 13.6537 13.1586 9.77258
4 13.1334 13.1207 10.5751
4 13.1227 12.7017 9.12038
3 0.888206 13.0533 10.4896
4 15.8125 12.878 10.3896
4 1.31819 12.3154 10.0574
3 9.7921 10.153 14.9035
4 9.22411 9.53737 15.3668
4 9.30189 10.9751 14.8991
3 6.05205 11.0695 8.00641
4 6.65841 10.5284 8.51214
4 6.59698 11.7706 7.64889
3 0.519159 14.7414 1.30995
4 0.916962 15.1144 0.523262
4 0.421312 13.8102 1.11099
3 8.05856 1.85204 6.00739
4 8.1691 1.49742 6.88958
4 8.07272 1.0839 5.43644
3 4.13217 10.1017 10.6461
4 4.51961 9.39292 10.1325
4 4.86233 10.4583 11.152
3 5.69315 3.78502 3.67373
4 5.30516 3.39381 4.45644
4 5.43185 4.70513 3.71059
3 13.244 4.30976 9.5876
4 13.0711 3.52209 9.07194
4 13.0168 5.03348 9.00379
3 14.5597 0.278732 12.3529
4 14.9011 15.3639 12.7994
4 15.2283 0.495307 11.703
3 1.85917 14.8883 14.7822
4 2.3253 14.0781 14.576
4 2.21471 15.5322 14.1696
3 9.03855 12.9335 15.1089
4 9.51226 13.1074 0.0622694
4 9.30849 13.6372 14.5188
3 0.111066 7.90511 14.3198
4 15.824 7.36172 13.5457
4 0.881793 7.52221 14.7389
3 6.73326 2.38278 9.14003
4 6.6297 2.45288 10.089
4 5.85593 2.53917 8.79067
3 0.0962823 11.6355 1.87366
4 0.201119 11.2029 1.02624
4 0.55564 11.067 2.49176
3 0.75506 1.31126 10.825
4 0.693117 2.25964 10.7111
4 1.22185 1.00612 10.047
3 4.65232 6.42901 3.26304
4 5.08213 7.19458 2.88172
4 3.8789 6.29083 2.71627
3 13.1206 0.293931 5.98123
4 13.8298 15.7008 5.52526
4 13.0135 15.6695 6.79985
3 11.9449 11.3414 13.1092
4 11.3286 11.7138 12.4785
4 11.429 10.7012 13.5995
3 11.7436 9.80946 1.22043
4 12.0754 10.6953 1.36676
4 11.1228 9.90202 0.497788
3 7.53844 15.4623 0.976415
4 7.68757 14.5215 1.07046
4 6.68312 15.6112 1.37952
3 14.4777 0.140346 15.5053
4 14.421 0.939587 0.168992
4 14.5736 15.2982 0.288728
3 6.25847 13.664 4.65048
4 6.7002 13.4655 5.47614
4 6.75324 13.178 3.99073
3 13.7563 2.75411 13.8123
4 13.1811 3.1903 13.1838
4 13.8511 1.86396 13.4734
3 6.16351 4.99116 6.4874
4 5.73713 4.13737 6.56144
4 7.09861 4.79003 6.45051
3 2.6894 9.58255 13.2404
4 3.10986 9.77596 12.4025
4 2.10009 8.8526 13.0504
3 1.98744 14.157 3.78951
4 2.5938 14.8592 4.02521
4 1.26028 14.6034 3.35572
3 14.6775 8.15581 10.4272
4 14.1845 8.9611 10.5842
4 15.4551 8.44024 9.9469
3 7.40968 6.99081 4.20565
4 7.68409 6.31048 4.82053
4 7.4652 6.57379 3.34586
3 0.246887 7.50276 6.65359
4 15.5785 6.71658 6.51581
4 0.969433 7.41838 6.03147
3 12.7559 8.72063 3.45256
4 12.3129 8.93441 2.63141
4 13.3088 7.96919 3.23841
3 14.6944 9.82067 5.06096
4 14.0388 9.59663 4.40051
4 14.9303 8.98268 5.45892
3 9.38854 2.5874 8.58572
4 9.54878 3.49645 8.83907
4 8.49629 2.40915 8.88295
388
Atoms. Timestep: 2
1 7.92954 7.93241 7.932
2 7.41712 7.90345 8.83142
2 8.24035 6.96055 7.94238
2 7.11822 8.07802 7.32361
3 13.5849 1.84154 1.93678
4 13.5898 2.41708 2.70161
4 12.7445 1.38582 1.98473
3 1.36997 8.44636 9.22671
4 0.979191 7.87591 8.56481
4 1.50344 9.28032 8.77623
3 0.211593 1.15786 7.74263
4 0.677962 0.328505 7.84707
4 15.1574 0.944252 7.92924
3 7.9901 9.40839 2.39982
4 8.62482 9.94128 2.87877
4 7.67253 8.77613 3.04451
3 7.16518 0.75928 14.393
4 7.14709 0.289032 15.2265
4 7.18094 1.68407 14.6394
3 12.1435 11.2836 8.34195
4 12.4663 10.7207 9.04561
4 11.9847 10.6866 7.61077
3 11.0983 3.41247 0.459468
4 10.3402 3.01543 0.888211
4 11.779 2.74113 0.505674
3 6.65535 15.8086 11.6508
4 7.48065 15.4058 11.381
4 6.66164 15.7517 12.6063
3 13.2643 3.05295 4.77404
4 13.1295 2.22521 5.23544
4 12.3812 3.38847 4.61999
3 2.15558 11.1983 9.26723
4 2.29165 11.2739 8.32277
4 2.96398 10.8046 9.59543
3 4.89668 0.291327 4.49553
4 5.07735 0.364313 3.55838
4 5.03465 15.2254 4.69514
3 4.95176 9.23246 14.4483
4 5.1812 10.0467 14.8962
4 4.05239 9.36791 14.1499
3 2.64202 6.8311 15.3807
4 2.4947 6.28427 0.292375
4 3.58869 6.80093 15.2423
3 2.85163 12.4091 14.431
4 2.92881 12.1072 15.336
4 3.75275 12.436 14.1093
3 10.9348 0.822063 1.78716
4 10.731 0.366711 2.60408
4 10.5736 0.259378 1.10221
3 12.8936 7.14584 8.17197
4 12.4974 7.81339 7.61193
4 13.0544 7.59386 9.00242
3 2.12473 1.52895 0.987785
4 2.97189 1.93005 0.793703
4 1.94352 1.77756 1.8942
3 7.74782 13.6397 6.98855
4 8.70439 13.6569 6.95854
4 7.52292 14.1496 7.76675
3 5.59345 13.2187 10.2296
4 5.33685 12.5139 9.63493
4 5.81712 13.9495 9.65323
3 11.9174 6.14078 5.16751
4 11.2539 6.82628 5.089
4 11.4158 5.33097 5.26146
3 12.6023 9.91321 10.6133
4 11.8442 9.37777 10.379
4 12.326 10.3911 11.3953
3 9.76235 7.9248 5.57209
4 9.51137 8.12255 6.47438
4 8.94739 7.99626 5.07514
3 7.42078 15.5725 8.73052
4 7.05299 0.547049 9.02105
4 8.18806 15.4414 9.2876
3 8.07986 3.16808 2.48146
4 7.64241 2.94677 1.65933
4 7.3947 3.09298 3.14565
3 4.39843 2.75189 13.4676
4 3.65396 3.32166 13.2744
4 4.11033 1.88029 13.1964
3 2.25684 4.80415 13.2794
4 2.18357 5.38012 14.0404
4 1.45089 4.28787 13.2907
3 11.8321 3.58903 12.1251
4 11.9069 4.23134 11.4194
4 11.8722 2.74098 11.683
3 1.60886 14.8121 8.47922
4 1.54777 14.3475 7.64458
4 1.17991 14.2324 9.10859
3 5.67445 7.2445 12.5399
4 4.79058 7.18696 12.1771
4 5.62212 7.94588 13.1892
3 3.53072 14.0248 1.0915
4 2.82691 14.5285 0.682538
4 3.22764 13.8719 1.98648
3 0.989955 13.1508 6.27667
4 1.07639 13.5712 5.42106
4 0.0988681 12.8013 6.28343
3 10.2265 8.83612 9.59979
4 9.67526 9.08533 8.85801
4 9.62664 8.41046 10.2123
3 5.56649 6.59498 0.128876
4 6.36027 6.44958 0.643655
4 5.47909 7.54723 0.0863575
3 8.40755 7.74182 11.3879
4 8.8081 7.1416 12.0168
4 7.47012 7.55619 11.4425
3 5.06488 0.448195 1.83729
4 4.90562 1.17856 1.23943
4 4.49984 15.6062 1.51449
3 10.6093 3.75429 4.73278
4 9.95873 3.99176 5.39353
4 10.1117 3.69227 3.91745
3 2.77092 0.620874 12.6499
4 2.25414 1.20689 12.097
4 2.83885 15.6713 12.1438
3 3.44302 10.0352 1.34163
4 2.97451 10.1496 2.16846
4 2.76731 9.77026 0.717577
3 11.0862 1.42454 10.5428
4 10.5914 1.64434 9.75346
4 10.6421 0.654481 10.8978
3 3.09734 6.83173 11.4328
4 2.31914 7.06294 10.9257
4 2.87694 5.99524 11.8426
3 4.49265 2.88909 0.150939
4 4.47797 2.80523 15.0575
4 4.03977 3.71394 0.326303
3 11.1514 12.6222 4.34616
4 10.8773 13.4634 4.71141
4 11.9997 12.4484 4.7541
3 15.4305 6.28989 12.0881
4 15.6268 5.44006 11.6937
4 15.3338 6.88342 11.3434
3 15.7967 13.8671 13.3103
4 0.469801 14.3897 13.9094
4 0.565376 13.3045 12.8582
3 13.2201 7.95278 14.9434
4 14.1655 8.1018 14.9336
4 12.9098 8.42989 15.713
3 9.97407 12.3362 9.93778
4 10.7728 12.0171 9.5177
4 9.64904 11.5864 10.4361
3 15.1582 15.5386 3.74351
4 15.4024 15.2811 2.8545
4 14.9351 0.606655 3.67185
3 7.22426 3.22072 15.4472
4 7.40061 4.11099 15.1429
4 6.31495 3.24465 15.7452
3 7.60403 5.57805 13.9945
4 6.86258 6.1825 13.961
4 7.67233 5.23244 13.1045
3 1.47755 9.98205 3.51013
4 0.882431 10.2066 4.22543
4 1.17327 9.12768 3.20401
3 8.50437 15.5456 3.83124
4 8.25984 15.6953 2.91799
4 7.72212 15.1641 4.2297
3 13.5352 12.9831 14.6635
4 13.2514 12.1605 14.2647
4 14.3901 13.1582 14.27
3 7.64802 5.8574 1.71237
4 7.63661 4.90803 1.83401
4 8.47891 6.03279 1.27067
3 0.530759 4.10971 0.639422
4 15.4648 4.35087 0.666757
4 0.58845 3.45784 15.8009
3 10.0478 5.27371 9.29651
4 9.50431 5.11439 10.0682
4 10.8131 5.73924 9.63394
3 13.8571 6.24689 2.79456
4 13.7451 5.71883 2.00409
4 13.3339 5.79846 3.4589
3 0.520131 7.15928 3.44826
4 15.5301 6.88741 3.10225
4 1.12595 6.47639 3.16037
3 8.64572 4.66778 11.4405
4 8.21231 3.81483 11.4698
4 9.16637 4.70011 12.243
3 12.2318 14.3386 12.0952
4 12.7335 15.1516 12.0365
4 12.4759 13.9666 12.9427
3 3.91926 6.49681 6.89237
4 4.60231 5.89589 6.59477
4 3.83537 7.13471 6.18366
3 11.6721 0.443721 14.6873
4 12.481 0.00762702 14.9551
4 11.9407 1.33712 14.473
3 14.599 5.36863 6.1635
4 13.8744 5.94764 6.40005
4 14.2063 4.71858 5.58083
3 3.53218 11.1588 6.94491
4 4.4396 11.3005 7.2146
4 3.27194 11.9839 6.53523
3 3.23818 14.0468 11.3714
4 4.03375 13.7144 10.9557
4 2.52695 13.7366 10.8109
3 13.3154 12.2324 1.33736
4 13.4271 12.5071 0.427266
4 14.2076 12.138 1.67083
3 5.98665 11.4642 12.2851
4 5.89179 12.2565 11.7563
4 6.06763 11.7837 13.1837
3 9.53387 15.1119 13.6335
4 10.3839 15.4753 13.8817
4 8.89525 15.7248 13.9978
3 9.24741 15.1403 10.6919
4 9.65388 14.3859 10.2655
4 9.39157 14.9941 11.6268
3 6.15691 10.8662 1.0972
4 5.3537 10.4544 1.41577
4 6.86138 10.321 1.44749
3 8.76882 10.7954 11.9422
4 8.66982 9.84592 12.0119
4 7.89141 11.1409 12.1066
3 10.3945 13.0232 1.68265
4 11.2297 12.6941 1.35049
4 10.39 12.7765 2.60748
3 12.063 6.40232 11.234
4 11.6036 7.02611 11.7961
4 12.985 6.49801 11.4728
3 11.9758 9.40805 6.42879
4 12.7703 9.30097 5.90568
4 11.2923 8.97326 5.91888
3 10.3349 14.8219 5.76624
4 11.0046 15.4903 5.62177
4 9.72164 14.9357 5.04012
3 2.78963 2.05648 3.92746
4 1.95036 1.96282 4.37813
4 3.36999 1.437 4.3698
3 13.2767 15.8311 9.21516
4 13.4102 14.9213 9.48087
4 12.4343 0.212483 9.60032
3 15.7729 4.01386 10.4392
4 0.499305 4.04396 9.68331
4 14.8997 4.14917 10.0711
3 0.969744 10.371 15.4324
4 1.44168 10.8341 14.7403
4 0.66041 9.56687 15.0154
3 4.62923 7.76538 9.23475
4 4.27646 7.51406 8.38116
4 4.17005 7.20356 9.85905
3 2.42457 5.13993 2.35058
4 2.76017 4.61616 3.07809
4 1.84703 4.5447 1.87269
3 3.60226 8.72068 5.36101
4 4.00073 9.21251 6.07903
4 3.63573 9.31769 4.61356
3 6.08333 12.6035 14.784
4 6.89427 13.0865 14.943
4 6.00388 12.0143 15.5342
3 9.18305 4.64102 6.59753
4 9.03977 3.81221 7.05446
4 9.65004 5.18643 7.23053
3 0.706981 2.75365 14.1129
4 15.631 2.65255 13.9399
4 1.02756 1.85923 14.229
3 2.19252 4.80405 8.83876
4 2.97866 4.45084 9.25526
4 2.52176 5.31642 8.10031
3 14.039 12.2849 6.10367
4 14.2659 11.3823 5.87984
4 13.6898 12.231 6.99323
3 0.348768 2.49936 5.10457
4 0.405649 2.16359 5.99914
4 15.5747 3.21451 5.15654
3 11.131 8.0368 13.1611
4 10.6525 8.77423 13.5398
4 11.9577 8.01423 13.6431
3 6.87996 2.55405 11.8765
4 6.27785 2.95848 12.5012
4 6.82082 1.61626 12.059
3 7.44433 13.0063 2.28144
4 8.28343 12.6632 1.97415
4 6.79559 12.3844 1.95197
3 9.63554 6.69988 15.8525
4 9.21811 6.06404 15.2714
4 10.4735 6.29932 0.224201
3 13.7266 5.36287 0.175801
4 13.7958 4.67849 15.3702
4 13.5809 6.16759 15.5384
3 5.39349 2.30832 6.29919
4 6.33669 2.24597 6.44994
4 5.21338 1.64865 5.6294
3 4.0436 1.60809 9.34987
4 4.30697 1.07491 10.0999
4 3.40005 1.07095 8.88775
3 9.90554 3.92911 13.9484
4 10.577 3.88093 13.2678
4 10.338 3.59894 14.7359
3 13.6537 13.1587 9.77254
4 13.1342 13.1226 10.5757
4 13.1222 12.6995 9.12219
3 0.888006 13.0535 10.4893
4 15.8121 12.8787 10.3902
4 1.3171 12.3136 10.0595
3 9.7924 10.1529 14.9036
4 9.22326 9.53751 15.3658
4 9.30249 10.9752 14.8982
3 6.05216 11.07 8.00639
4 6.65769 10.5274 8.51154
4 6.59845 11.7697 7.64838
3 0.518954 14.7413 1.31017
4 0.916083 15.114 0.523013
4 0.422756 13.8097 1.11237
3 8.05818 1.85198 6.0076
4 8.17325 1.49647 6.88885
4 8.07637 1.08503 5.43516
3 4.13237 10.1018 10.6462
4 4.51804 9.3909 10.1342
4 4.86297 10.4565 11.1528
3 5.69328 3.78508 3.67382
4 5.30386 3.39444 4.45611
4 5.43108 4.705 3.70901
3 13.2442 4.30964 9.58741
4 13.0699 3.52289 9.0708
4 13.0174 5.03444 9.00477
3 14.5594 0.278714 12.353
4 14.9022 15.3638 12.7983
4 15.2277 0.497609 11.7036
3 1.85934 14.8884 14.7821
4 2.32469 14.0777 14.576
4 2.21592 15.5321 14.1699
3 9.03839 12.9334 15.1091
4 9.5141 13.1074 0.0613304
4 9.30762 13.6365 14.518
3 0.111276 7.90513 14.3199
4 15.822 7.36144 13.5464
4 0.881841 7.52101 14.7381
3 6.7334 2.38273 9.14006
4 6.63102 2.45409 10.0891
4 5.85521 2.53657 8.79171
3 0.0960218 11.6355 1.87325
4 0.204748 11.2026 1.02649
4 0.557206 11.0701 2.49281
3 0.755504 1.31127 10.8252
4 0.687852 2.25913 10.7103
4 1.21768 1.00721 10.0441
3 4.65236 6.42873 3.26314
4 5.08159 7.19452 2.88162
4 3.87861 6.29032 2.71689
3 13.1205 0.293908 5.98104
4 13.8298 15.701 5.52508
4 13.0154 15.6712 6.80094
3 11.9448 11.341 13.1089
4 11.3274 11.7174 12.4818
4 11.4277 10.7038 13.6018
3 11.7437 9.80937 1.22023
4 12.0776 10.6945 1.36633
4 11.1224 9.90342 0.49809
3 7.53834 15.4622 0.976398
4 7.68647 14.5216 1.07411
4 6.68329 15.6136 1.37913
3 14.4773 0.140521 15.5054
4 14.4218 0.939541 0.169557
4 14.5763 15.2982 0.288224
3 6.25834 13.6641 4.65071
4 6.70233 13.4665 5.47537
4 6.7533 13.1801 3.9897
3 13.7564 2.75389 13.8124
4 13.1813 3.19076 13.1842
4 13.853 1.86478 13.4713
3 6.1635 4.99102 6.48743
4 5.73756 4.13696 6.56086
4 7.09872 4.7904 6.45063
3 2.68938 9.58245 13.2402
4 3.10814 9.77736 12.4018
4 2.09998 8.85258 13.0501
3 1.98763 14.1571 3.78954
4 2.59254 14.8604 4.02554
4 1.25977 14.6022 3.35553
3 14.6776 8.15585 10.4271
4 14.1832 8.96048 10.5832
4 15.4556 8.44133 9.94802
3 7.41023 6.99116 4.2055
4 7.68061 6.30951 4.8207
4 7.46281 6.57326 3.34595
3 0.246912 7.50291 6.65356
4 15.58 6.71549 6.51713
4 0.969406 7.41902 6.03131
3 12.7563 8.72066 3.45272
4 12.3126 8.93668 2.63253
4 13.3048 7.9663 3.23741
3 14.6942 9.82063 5.06116
4 14.0401 9.59521 4.39967
4 14.933 8.98284 5.45782
3 9.3884 2.58748 8.58584
4 9.55148 3.49542 8.84135
4 8.49553 2.41136 8.88249
388
Atoms. Timestep: 3
1 7.92902 7.93443 7.93423
2 7.42238 7.9158 8.84051
2 8.24305 6.93182 7.923
2 7.11525 8.06498 7.30292
3 13.5848 1.84129 1.9368
4 13.5906 2.41718 2.70136
4 12.7429 1.38831 1.98392