LAMMPS (29 Nov 2011)
Scanning data file ...
  3 = max bonds/atom
  6 = max angles/atom
  12 = max dihedrals/atom
Reading data file ...
  orthogonal box = (0 0 0) to (28.9118 29.461 30.13)
  1 by 1 by 1 processor grid
  1555 atoms
  1554 bonds
  21 angles
  25 dihedrals
Finding 1-2 1-3 1-4 neighbors ...
  4 = max # of 1-2 neighbors
  8 = max # of 1-3 neighbors
  11 = max # of 1-4 neighbors
  12 = max # of special neighbors
Finding 1-2 1-3 1-4 neighbors ...
  4 = max # of 1-2 neighbors
  8 = max # of 1-3 neighbors
  11 = max # of 1-4 neighbors
  12 = max # of special neighbors
MS2EC Module: master role
fix_ms2ec: type  1 (mass:       16) matches a  O with: Z = 8   A = 16  (error = 0.0051   -> 0.032%)
fix_ms2ec: type  2 (mass:    12.01) matches a  C with: Z = 6   A = 12  (error = 0.01     -> 0.083%)
fix_ms2ec: type  3 (mass:    12.01) matches a  C with: Z = 6   A = 12  (error = 0.01     -> 0.083%)
fix_ms2ec: type  4 (mass:    14.01) matches a  N with: Z = 7   A = 14  (error = 0.0069   -> 0.049%)
fix_ms2ec: type  5 (mass:    1.008) matches a  H with: Z = 1   A = 1   (error = 0.00017  -> 0.017%)
fix_ms2ec: type  6 (mass:    1.008) matches a  H with: Z = 1   A = 1   (error = 0.00017  -> 0.017%)
fix_ms2ec: type  7 (mass:    1.008) matches a  H with: Z = 1   A = 1   (error = 0.00017  -> 0.017%)
fix_ms2ec: type  8 (mass:       16) matches a  O with: Z = 8   A = 16  (error = 0.0051   -> 0.032%)
fix_ms2ec: type  9 (mass:    1.008) matches a  H with: Z = 1   A = 1   (error = 0.00017  -> 0.017%)
PPPM initialization ...
  G vector = 0.262285
  grid = 15 15 15
  stencil order = 5
  RMS precision = 5.52365e-05
  using double precision FFTs
  brick FFT buffer size/proc = 9680 3375 5280
MS2EC Module: init
MS2EC Module: pre force
Setting up run ...
MS2EC Module: setup
MS2EC Module: post force
Memory usage per processor = 10.7877 Mbytes
---------------- Step        0 ----- CPU =      0.0000 (sec) ----------------
TotEng   =     -3762.8385 KinEng   =         0.0000 Temp     =         0.0000 
PotEng   =     -3762.8385 E_bond   =         9.8111 E_angle  =         7.2987 
E_dihed  =         0.2511 E_impro  =         0.0000 E_vdwl   =       497.1371 
E_coul   =     21972.6872 E_long   =    -26250.0238 Press    =      8015.6733 
MS2EC Module: pre force
MS2EC Module: post force
---------------- Step        1 ----- CPU =    196.0043 (sec) ----------------
TotEng   =     -3767.9025 KinEng   =        43.0618 Temp     =         9.2962 
PotEng   =     -3810.9643 E_bond   =        16.9627 E_angle  =         6.9677 
E_dihed  =         0.2506 E_impro  =         0.0000 E_vdwl   =       496.4704 
E_coul   =     21918.4509 E_long   =    -26250.0665 Press    =      3556.3979 
MS2EC Module: pre force
MS2EC Module: post force
---------------- Step        2 ----- CPU =    402.4072 (sec) ----------------
TotEng   =     -3767.9949 KinEng   =       121.5016 Temp     =        26.2299 
PotEng   =     -3889.4965 E_bond   =        75.5311 E_angle  =         6.0875 
E_dihed  =         0.2491 E_impro  =         0.0000 E_vdwl   =       494.6693 
E_coul   =     21784.2740 E_long   =    -26250.3074 Press    =     -4722.5026 
MS2EC Module: pre force
MS2EC Module: post force
---------------- Step        3 ----- CPU =    599.6376 (sec) ----------------
TotEng   =     -3766.5465 KinEng   =       206.0639 Temp     =        44.4853 
PotEng   =     -3972.6105 E_bond   =       152.5819 E_angle  =         4.9497 
E_dihed  =         0.2476 E_impro  =         0.0000 E_vdwl   =       492.1997 
E_coul   =     21628.3038 E_long   =    -26250.8933 Press    =     -7573.9476 
MS2EC Module: pre force
MS2EC Module: post force
---------------- Step        4 ----- CPU =    807.2768 (sec) ----------------
TotEng   =     -3768.0478 KinEng   =       276.0853 Temp     =        59.6016 
PotEng   =     -4044.1330 E_bond   =       231.3041 E_angle  =         3.9188 
E_dihed  =         0.2472 E_impro  =         0.0000 E_vdwl   =       489.5528 
E_coul   =     21482.5551 E_long   =    -26251.7110 Press    =     -3172.7012 
MS2EC Module: pre force
MS2EC Module: post force
---------------- Step        5 ----- CPU =   1014.7978 (sec) ----------------
TotEng   =     -3759.6487 KinEng   =       290.5330 Temp     =        62.7206 
PotEng   =     -4050.1817 E_bond   =       376.9588 E_angle  =         3.3309 
E_dihed  =         0.2490 E_impro  =         0.0000 E_vdwl   =       487.0314 
E_coul   =     21334.7162 E_long   =    -26252.4680 Press    =       748.6319 
MS2EC Module: pre force
MS2EC Module: post force
---------------- Step        6 ----- CPU =   1222.7492 (sec) ----------------
TotEng   =     -3754.9999 KinEng   =       286.6368 Temp     =        61.8795 
PotEng   =     -4041.6367 E_bond   =       553.5976 E_angle  =         3.4259 
E_dihed  =         0.2539 E_impro  =         0.0000 E_vdwl   =       484.7199 
E_coul   =     21169.4751 E_long   =    -26253.1090 Press    =     -2879.8814 
MS2EC Module: pre force
MS2EC Module: post force
---------------- Step        7 ----- CPU =   1430.6912 (sec) ----------------
TotEng   =     -3748.7131 KinEng   =       277.3451 Temp     =        59.8736 
PotEng   =     -4026.0582 E_bond   =       727.3839 E_angle  =         4.3087 
E_dihed  =         0.2624 E_impro  =         0.0000 E_vdwl   =       482.5598 
E_coul   =     21013.5069 E_long   =    -26254.0799 Press    =    -11702.6365 
MS2EC Module: pre force
MS2EC Module: post force
---------------- Step        8 ----- CPU =   1637.9210 (sec) ----------------
TotEng   =     -3737.9499 KinEng   =       290.7746 Temp     =        62.7727 
PotEng   =     -4028.7245 E_bond   =       815.8031 E_angle  =         5.9349 
E_dihed  =         0.2742 E_impro  =         0.0000 E_vdwl   =       480.4152 
E_coul   =     20924.9505 E_long   =    -26256.1023 Press    =    -16368.1099 
MS2EC Module: pre force
MS2EC Module: post force
---------------- Step        9 ----- CPU =   1845.3983 (sec) ----------------
TotEng   =     -3737.9331 KinEng   =       380.9222 Temp     =        82.2339 
PotEng   =     -4118.8553 E_bond   =       720.4029 E_angle  =         8.1233 
E_dihed  =         0.2885 E_impro  =         0.0000 E_vdwl   =       478.1383 
E_coul   =     20933.7457 E_long   =    -26259.5541 Press    =    -11618.5170 
MS2EC Module: pre force
MS2EC Module: post force
---------------- Step       10 ----- CPU =   2052.9786 (sec) ----------------
TotEng   =     -3734.2294 KinEng   =       497.7114 Temp     =       107.4465 
PotEng   =     -4231.9408 E_bond   =       538.8863 E_angle  =        10.6054 
E_dihed  =         0.3045 E_impro  =         0.0000 E_vdwl   =       475.6308 
E_coul   =     21006.6909 E_long   =    -26264.0587 Press    =     -2976.4884 
MS2EC Module: pre force
MS2EC Module: post force
---------------- Step       11 ----- CPU =   2259.7878 (sec) ----------------
TotEng   =     -3729.1925 KinEng   =       599.5527 Temp     =       129.4321 
PotEng   =     -4328.7452 E_bond   =       368.6143 E_angle  =        13.1058 
E_dihed  =         0.3212 E_impro  =         0.0000 E_vdwl   =       472.9355 
E_coul   =     21085.0600 E_long   =    -26268.7821 Press    =       125.3884 
MS2EC Module: pre force
MS2EC Module: post force
---------------- Step       12 ----- CPU =   2467.5201 (sec) ----------------
TotEng   =     -3726.7462 KinEng   =       656.5398 Temp     =       141.7346 
PotEng   =     -4383.2860 E_bond   =       257.3409 E_angle  =        15.4191 
E_dihed  =         0.3382 E_impro  =         0.0000 E_vdwl   =       470.2623 
E_coul   =     21146.4174 E_long   =    -26273.0639 Press    =     -4465.9915 
MS2EC Module: pre force
MS2EC Module: post force
---------------- Step       13 ----- CPU =   2675.4306 (sec) ----------------
TotEng   =     -3714.8153 KinEng   =       642.2125 Temp     =       138.6416 
PotEng   =     -4357.0278 E_bond   =       218.0169 E_angle  =        17.4403 
E_dihed  =         0.3555 E_impro  =         0.0000 E_vdwl   =       467.8752 
E_coul   =     21215.9863 E_long   =    -26276.7020 Press    =     -9312.4070 
MS2EC Module: pre force
MS2EC Module: post force
---------------- Step       14 ----- CPU =   2882.9888 (sec) ----------------
TotEng   =     -3710.2584 KinEng   =       621.4943 Temp     =       134.1689 
PotEng   =     -4331.7527 E_bond   =       147.2144 E_angle  =        19.1466 
E_dihed  =         0.3732 E_impro  =         0.0000 E_vdwl   =       465.9104 
E_coul   =     21315.3392 E_long   =    -26279.7366 Press    =     -6569.6380 
MS2EC Module: pre force
MS2EC Module: post force
---------------- Step       15 ----- CPU =   3101.5026 (sec) ----------------
TotEng   =     -3707.0442 KinEng   =       607.6868 Temp     =       131.1881 
PotEng   =     -4314.7310 E_bond   =        66.4871 E_angle  =        20.5591 
E_dihed  =         0.3920 E_impro  =         0.0000 E_vdwl   =       464.2389 
E_coul   =     21415.7133 E_long   =    -26282.1214 Press    =      1630.8741 
MS2EC Module: pre force
MS2EC Module: post force
---------------- Step       16 ----- CPU =   3309.0166 (sec) ----------------
TotEng   =     -3698.3943 KinEng   =       598.2817 Temp     =       129.1577 
PotEng   =     -4296.6760 E_bond   =        45.9596 E_angle  =        21.7117 
E_dihed  =         0.4127 E_impro  =         0.0000 E_vdwl   =       462.5565 
E_coul   =     21456.4218 E_long   =    -26283.7384 Press    =      5756.6661 
MS2EC Module: pre force
MS2EC Module: post force
---------------- Step       17 ----- CPU =   3516.8325 (sec) ----------------
TotEng   =     -3698.2473 KinEng   =       627.6215 Temp     =       135.4916 
PotEng   =     -4325.8687 E_bond   =        69.3987 E_angle  =        22.6327 
E_dihed  =         0.4355 E_impro  =         0.0000 E_vdwl   =       460.5560 
E_coul   =     21405.8044 E_long   =    -26284.6961 Press    =       870.7577 
MS2EC Module: pre force
MS2EC Module: post force
---------------- Step       18 ----- CPU =   3724.7589 (sec) ----------------
TotEng   =     -3693.4154 KinEng   =       660.8756 Temp     =       142.6706 
PotEng   =     -4354.2910 E_bond   =       157.7361 E_angle  =        23.3359 
E_dihed  =         0.4603 E_impro  =         0.0000 E_vdwl   =       458.1252 
E_coul   =     21291.4833 E_long   =    -26285.4318 Press    =     -7511.9604 
MS2EC Module: pre force
MS2EC Module: post force
---------------- Step       19 ----- CPU =   3932.5089 (sec) ----------------
TotEng   =     -3690.2146 KinEng   =       689.0326 Temp     =       148.7491 
PotEng   =     -4379.2472 E_bond   =       257.8643 E_angle  =        23.8166 
E_dihed  =         0.4860 E_impro  =         0.0000 E_vdwl   =       455.3851 
E_coul   =     21169.5741 E_long   =    -26286.3732 Press    =    -10057.4934 
MS2EC Module: pre force
MS2EC Module: post force
---------------- Step       20 ----- CPU =   4139.6540 (sec) ----------------
TotEng   =     -3690.6892 KinEng   =       688.3904 Temp     =       148.6105 
PotEng   =     -4379.0796 E_bond   =       362.7287 E_angle  =        24.0494 
E_dihed  =         0.5107 E_impro  =         0.0000 E_vdwl   =       452.6282 
E_coul   =     21068.5173 E_long   =    -26287.5139 Press    =     -5315.5180 
MS2EC Module: pre force
MS2EC Module: post force
---------------- Step       21 ----- CPU =   4346.3771 (sec) ----------------
TotEng   =     -3680.9055 KinEng   =       621.9946 Temp     =       134.2769 
PotEng   =     -4302.9001 E_bond   =       535.9741 E_angle  =        23.9920 
E_dihed  =         0.5327 E_impro  =         0.0000 E_vdwl   =       450.1759 
E_coul   =     20974.9282 E_long   =    -26288.5030 Press    =     -1282.5901 
MS2EC Module: pre force
MS2EC Module: post force
---------------- Step       22 ----- CPU =   4553.2560 (sec) ----------------
TotEng   =     -3677.5604 KinEng   =       556.0570 Temp     =       120.0422 
PotEng   =     -4233.6175 E_bond   =       706.3252 E_angle  =        23.5997 
E_dihed  =         0.5508 E_impro  =         0.0000 E_vdwl   =       448.2877 
E_coul   =     20876.7849 E_long   =    -26289.1657 Press    =     -4789.5536 
MS2EC Module: pre force
MS2EC Module: post force
---------------- Step       23 ----- CPU =   4760.0176 (sec) ----------------
TotEng   =     -3676.4609 KinEng   =       522.3484 Temp     =       112.7652 
PotEng   =     -4198.8093 E_bond   =       817.1632 E_angle  =        22.8440 
E_dihed  =         0.5653 E_impro  =         0.0000 E_vdwl   =       447.0738 
E_coul   =     20803.3375 E_long   =    -26289.7932 Press    =    -13079.5741 
MS2EC Module: pre force
MS2EC Module: post force
---------------- Step       24 ----- CPU =   4967.3175 (sec) ----------------
TotEng   =     -3673.0224 KinEng   =       531.0202 Temp     =       114.6372 
PotEng   =     -4204.0426 E_bond   =       810.7838 E_angle  =        21.7276 
E_dihed  =         0.5778 E_impro  =         0.0000 E_vdwl   =       446.4658 
E_coul   =     20807.3306 E_long   =    -26290.9282 Press    =    -16785.1115 
MS2EC Module: pre force
MS2EC Module: post force
---------------- Step       25 ----- CPU =   5174.8165 (sec) ----------------
TotEng   =     -3678.0152 KinEng   =       597.1368 Temp     =       128.9106 
PotEng   =     -4275.1520 E_bond   =       644.4413 E_angle  =        20.2924 
E_dihed  =         0.5907 E_impro  =         0.0000 E_vdwl   =       446.2168 
E_coul   =     20906.1904 E_long   =    -26292.8835 Press    =    -11102.7407 
MS2EC Module: pre force
MS2EC Module: post force
---------------- Step       26 ----- CPU =   5382.3765 (sec) ----------------
TotEng   =     -3676.0772 KinEng   =       658.5033 Temp     =       142.1584 
PotEng   =     -4334.5805 E_bond   =       441.4510 E_angle  =        18.6241 
E_dihed  =         0.6069 E_impro  =         0.0000 E_vdwl   =       446.0160 
E_coul   =     21054.2002 E_long   =    -26295.4788 Press    =     -2005.6650 
MS2EC Module: pre force
MS2EC Module: post force
---------------- Step       27 ----- CPU =   5590.3742 (sec) ----------------
TotEng   =     -3673.5200 KinEng   =       700.5999 Temp     =       151.2463 
PotEng   =     -4374.1199 E_bond   =       275.7251 E_angle  =        16.8500 
E_dihed  =         0.6299 E_impro  =         0.0000 E_vdwl   =       445.6688 
E_coul   =     21185.2804 E_long   =    -26298.2741 Press    =      1089.5282 
MS2EC Module: pre force
MS2EC Module: post force
---------------- Step       28 ----- CPU =   5798.2670 (sec) ----------------
TotEng   =     -3675.0198 KinEng   =       715.8194 Temp     =       154.5319 
PotEng   =     -4390.8392 E_bond   =       176.6521 E_angle  =        15.1246 
E_dihed  =         0.6630 E_impro  =         0.0000 E_vdwl   =       445.1857 
E_coul   =     21272.4921 E_long   =    -26300.9568 Press    =     -3609.4856 
MS2EC Module: pre force
MS2EC Module: post force
---------------- Step       29 ----- CPU =   6006.1832 (sec) ----------------
TotEng   =     -3666.6421 KinEng   =       676.6851 Temp     =       146.0835 
PotEng   =     -4343.3272 E_bond   =       163.7115 E_angle  =        13.5980 
E_dihed  =         0.7088 E_impro  =         0.0000 E_vdwl   =       444.8147 
E_coul   =     21337.2676 E_long   =    -26303.4278 Press    =     -8410.5289 
MS2EC Module: pre force
MS2EC Module: post force
---------------- Step       30 ----- CPU =   6214.1265 (sec) ----------------
TotEng   =     -3664.3132 KinEng   =       644.8279 Temp     =       139.2062 
PotEng   =     -4309.1411 E_bond   =       135.1517 E_angle  =        12.3733 
E_dihed  =         0.7686 E_impro  =         0.0000 E_vdwl   =       444.8858 
E_coul   =     21403.2674 E_long   =    -26305.5879 Press    =     -5581.1772 
MS2EC Module: pre force
MS2EC Module: post force
---------------- Step       31 ----- CPU =   6420.9139 (sec) ----------------
TotEng   =     -3663.3259 KinEng   =       642.8160 Temp     =       138.7718 
PotEng   =     -4306.1419 E_bond   =        90.5584 E_angle  =        11.4789 
E_dihed  =         0.8410 E_impro  =         0.0000 E_vdwl   =       445.6588 
E_coul   =     21452.4973 E_long   =    -26307.1763 Press    =      2453.0574 
MS2EC Module: pre force
MS2EC Module: post force
---------------- Step       32 ----- CPU =   6641.1195 (sec) ----------------
TotEng   =     -3659.8274 KinEng   =       674.1565 Temp     =       145.5377 
PotEng   =     -4333.9839 E_bond   =        76.3690 E_angle  =        10.8847 
E_dihed  =         0.9229 E_impro  =         0.0000 E_vdwl   =       447.1968 
E_coul   =     21438.5514 E_long   =    -26307.9086 Press    =      6097.2090 
MS2EC Module: pre force
MS2EC Module: post force
---------------- Step       33 ----- CPU =   6848.1980 (sec) ----------------
TotEng   =     -3665.3614 KinEng   =       746.7877 Temp     =       161.2174 
PotEng   =     -4412.1491 E_bond   =        94.7430 E_angle  =        10.5497 
E_dihed  =         1.0108 E_impro  =         0.0000 E_vdwl   =       449.4076 
E_coul   =     21339.8690 E_long   =    -26307.7291 Press    =       656.9034 
MS2EC Module: pre force
MS2EC Module: post force
---------------- Step       34 ----- CPU =   7055.9457 (sec) ----------------
TotEng   =     -3662.8120 KinEng   =       794.0179 Temp     =       171.4135 
PotEng   =     -4456.8299 E_bond   =       198.6283 E_angle  =        10.4502 
E_dihed  =         1.1020 E_impro  =         0.0000 E_vdwl   =       452.1048 
E_coul   =     21187.7786 E_long   =    -26306.8938 Press    =     -8045.4464 
MS2EC Module: pre force
MS2EC Module: post force
---------------- Step       35 ----- CPU =   7263.9281 (sec) ----------------
TotEng   =     -3659.9903 KinEng   =       813.4576 Temp     =       175.6102 
PotEng   =     -4473.4479 E_bond   =       327.2798 E_angle  =        10.5631 
E_dihed  =         1.1946 E_impro  =         0.0000 E_vdwl   =       455.1276 
E_coul   =     21038.1746 E_long   =    -26305.7875 Press    =    -10570.3560 
MS2EC Module: pre force
MS2EC Module: post force
---------------- Step       36 ----- CPU =   7471.7322 (sec) ----------------
TotEng   =     -3661.3317 KinEng   =       808.9308 Temp     =       174.6329 
PotEng   =     -4470.2625 E_bond   =       446.2853 E_angle  =        10.8311 
E_dihed  =         1.2869 E_impro  =         0.0000 E_vdwl   =       458.4491 
E_coul   =     20917.5081 E_long   =    -26304.6230 Press    =     -5655.6452 
MS2EC Module: pre force
MS2EC Module: post force
---------------- Step       37 ----- CPU =   7679.6969 (sec) ----------------
TotEng   =     -3653.3045 KinEng   =       756.4392 Temp     =       163.3010 
PotEng   =     -4409.7437 E_bond   =       608.4939 E_angle  =        11.1475 
E_dihed  =         1.3778 E_impro  =         0.0000 E_vdwl   =       462.1584 
E_coul   =     20810.4873 E_long   =    -26303.4086 Press    =     -1519.8373 
MS2EC Module: pre force
MS2EC Module: post force
---------------- Step       38 ----- CPU =   7887.5541 (sec) ----------------
TotEng   =     -3651.2759 KinEng   =       711.8479 Temp     =       153.6745 
PotEng   =     -4363.1238 E_bond   =       755.8459 E_angle  =        11.3731 
E_dihed  =         1.4671 E_impro  =         0.0000 E_vdwl   =       466.5159 
E_coul   =     20703.8891 E_long   =    -26302.2149 Press    =     -4974.3382 
MS2EC Module: pre force
MS2EC Module: post force
---------------- Step       39 ----- CPU =   8095.3848 (sec) ----------------
TotEng   =     -3649.1369 KinEng   =       694.7444 Temp     =       149.9822 
PotEng   =     -4343.8813 E_bond   =       844.3603 E_angle  =        11.3799 
E_dihed  =         1.5549 E_impro  =         0.0000 E_vdwl   =       471.8014 
E_coul   =     20628.3416 E_long   =    -26301.3194 Press    =    -13001.7671 
MS2EC Module: pre force
MS2EC Module: post force
---------------- Step       40 ----- CPU =   8293.3279 (sec) ----------------
TotEng   =     -3644.5832 KinEng   =       719.5203 Temp     =       155.3309 
PotEng   =     -4364.1035 E_bond   =       807.0418 E_angle  =        11.0976 
E_dihed  =         1.6421 E_impro  =         0.0000 E_vdwl   =       478.1967 
E_coul   =     20638.9635 E_long   =    -26301.0452 Press    =    -16061.1697 
MS2EC Module: pre force
MS2EC Module: post force
---------------- Step       41 ----- CPU =   8490.4226 (sec) ----------------
TotEng   =     -3649.7198 KinEng   =       798.0820 Temp     =       172.2908 
PotEng   =     -4447.8018 E_bond   =       603.3465 E_angle  =        10.5447 
E_dihed  =         1.7287 E_impro  =         0.0000 E_vdwl   =       485.6631 
E_coul   =     20752.4064 E_long   =    -26301.4913 Press    =     -9634.7047 
MS2EC Module: pre force
MS2EC Module: post force
---------------- Step       42 ----- CPU =   8678.5946 (sec) ----------------
TotEng   =     -3646.0460 KinEng   =       850.2200 Temp     =       183.5464 
PotEng   =     -4496.2659 E_bond   =       382.2590 E_angle  =         9.8294 
E_dihed  =         1.8153 E_impro  =         0.0000 E_vdwl   =       493.9268 
E_coul   =     20918.3511 E_long   =    -26302.4476 Press    =      -229.9012 
MS2EC Module: pre force
MS2EC Module: post force
---------------- Step       43 ----- CPU =   8885.5175 (sec) ----------------
TotEng   =     -3639.3469 KinEng   =       860.2404 Temp     =       185.7097 
PotEng   =     -4499.5872 E_bond   =       226.3451 E_angle  =         9.1281 
E_dihed  =         1.9029 E_impro  =         0.0000 E_vdwl   =       502.6055 
E_coul   =     21064.0267 E_long   =    -26303.5957 Press    =      2597.2107 
MS2EC Module: pre force
MS2EC Module: post force
---------------- Step       44 ----- CPU =   9092.9798 (sec) ----------------
TotEng   =     -3635.0654 KinEng   =       844.3372 Temp     =       182.2765 
PotEng   =     -4479.4026 E_bond   =       145.9175 E_angle  =         8.6485 
E_dihed  =         1.9941 E_impro  =         0.0000 E_vdwl   =       511.3991 
E_coul   =     21157.4121 E_long   =    -26304.7739 Press    =     -2481.7914 
MS2EC Module: pre force
MS2EC Module: post force
---------------- Step       45 ----- CPU =   9280.6547 (sec) ----------------
TotEng   =     -3621.4831 KinEng   =       801.9165 Temp     =       173.1186 
PotEng   =     -4423.3996 E_bond   =       134.7011 E_angle  =         8.5847 
E_dihed  =         2.0915 E_impro  =         0.0000 E_vdwl   =       520.2238 
E_coul   =     21217.0140 E_long   =    -26306.0147 Press    =     -7269.9013 
MS2EC Module: pre force
MS2EC Module: post force
---------------- Step       46 ----- CPU =   9488.0300 (sec) ----------------
TotEng   =     -3613.5834 KinEng   =       788.7380 Temp     =       170.2737 
PotEng   =     -4402.3214 E_bond   =        98.7747 E_angle  =         9.0727 
E_dihed  =         2.1973 E_impro  =         0.0000 E_vdwl   =       529.3333 
E_coul   =     21265.6109 E_long   =    -26307.3103 Press    =     -4164.3552 
MS2EC Module: pre force
MS2EC Module: post force
---------------- Step       47 ----- CPU =   9695.8099 (sec) ----------------
TotEng   =     -3601.9732 KinEng   =       795.3960 Temp     =       171.7110 
PotEng   =     -4397.3691 E_bond   =        72.8648 E_angle  =        10.1595 
E_dihed  =         2.3120 E_impro  =         0.0000 E_vdwl   =       539.2947 
E_coul   =     21286.4084 E_long   =    -26308.4085 Press    =      3820.3103 
MS2EC Module: pre force
MS2EC Module: post force
---------------- Step       48 ----- CPU =   9903.6734 (sec) ----------------
TotEng   =     -3583.0685 KinEng   =       817.6423 Temp     =       176.5135 
PotEng   =     -4400.7107 E_bond   =       105.0387 E_angle  =        11.7976 
E_dihed  =         2.4336 E_impro  =         0.0000 E_vdwl   =       551.0433 
E_coul   =     21237.9207 E_long   =    -26308.9446 Press    =      6918.7666 
MS2EC Module: pre force
MS2EC Module: post force
---------------- Step       49 ----- CPU =  10111.4785 (sec) ----------------
TotEng   =     -3569.0458 KinEng   =       876.8829 Temp     =       189.3025 
PotEng   =     -4445.9287 E_bond   =       173.0512 E_angle  =        13.8612 
E_dihed  =         2.5577 E_impro  =         0.0000 E_vdwl   =       566.3491 
E_coul   =     21106.9833 E_long   =    -26308.7312 Press    =       911.7866 
MS2EC Module: pre force
MS2EC Module: post force
---------------- Step       50 ----- CPU =  10334.3604 (sec) ----------------
TotEng   =     -3538.0930 KinEng   =       911.4391 Temp     =       196.7625 
PotEng   =     -4449.5321 E_bond   =       315.2378 E_angle  =        16.1735 
E_dihed  =         2.6782 E_impro  =         0.0000 E_vdwl   =       589.5269 
E_coul   =     20934.7496 E_long   =    -26307.8980 Press    =     -7859.3421 
MS2EC Module: pre force
MS2EC Module: post force
---------------- Step       51 ----- CPU =  10542.1620 (sec) ----------------
TotEng   =     -3482.1012 KinEng   =       911.3451 Temp     =       196.7422 
PotEng   =     -4393.4463 E_bond   =       474.5011 E_angle  =        18.5377 
E_dihed  =         2.7888 E_impro  =         0.0000 E_vdwl   =       633.9591 
E_coul   =     20783.5655 E_long   =    -26306.7986 Press    =     -9866.3397 
MS2EC Module: pre force
MS2EC Module: post force
---------------- Step       52 ----- CPU =  10750.2539 (sec) ----------------
TotEng   =     -3352.1646 KinEng   =       880.8271 Temp     =       190.1539 
PotEng   =     -4232.9917 E_bond   =       620.8948 E_angle  =        20.7581 
E_dihed  =         2.8849 E_impro  =         0.0000 E_vdwl   =       749.5037 
E_coul   =     20678.6999 E_long   =    -26305.7331 Press    =     -3694.4237 
MS2EC Module: pre force
MS2EC Module: post force
---------------- Step       53 ----- CPU =  10968.0898 (sec) ----------------
TotEng   =     -2928.0330 KinEng   =       819.9750 Temp     =       177.0171 
PotEng   =     -3748.0080 E_bond   =       788.4520 E_angle  =        22.6152 
E_dihed  =         2.9645 E_impro  =         0.0000 E_vdwl   =      1145.8043 
E_coul   =     20596.9420 E_long   =    -26304.7860 Press    =      4548.4641 
MS2EC Module: pre force
MS2EC Module: post force
---------------- Step       54 ----- CPU =  11176.7249 (sec) ----------------
TotEng   =     -1451.2690 KinEng   =       794.4145 Temp     =       171.4991 
PotEng   =     -2245.6835 E_bond   =       911.5993 E_angle  =        23.7553 
E_dihed  =         3.0285 E_impro  =         0.0000 E_vdwl   =      2602.9735 
E_coul   =     20516.9376 E_long   =    -26303.9777 Press    =     16597.5428 
MS2EC Module: pre force
MS2EC Module: post force
---------------- Step       55 ----- CPU =  11385.0866 (sec) ----------------
TotEng   =      1312.3405 KinEng   =       800.3396 Temp     =       172.7782 
PotEng   =       512.0009 E_bond   =       969.6054 E_angle  =        23.5205 
E_dihed  =         3.0792 E_impro  =         0.0000 E_vdwl   =      5355.1706 
E_coul   =     20464.0864 E_long   =    -26303.4614 Press    =     38159.5843 
MS2EC Module: pre force
MS2EC Module: post force
---------------- Step       56 ----- CPU =  11592.8595 (sec) ----------------
TotEng   =        55.4928 KinEng   =       835.0878 Temp     =       180.2797 
PotEng   =      -779.5950 E_bond   =       910.7424 E_angle  =        21.2862 
E_dihed  =         3.1183 E_impro  =         0.0000 E_vdwl   =      4097.3539 
E_coul   =     20491.3620 E_long   =    -26303.4578 Press    =     22002.8415 
MS2EC Module: pre force
MS2EC Module: post force
---------------- Step       57 ----- CPU =  11801.1250 (sec) ----------------
TotEng   =     -2338.4980 KinEng   =       902.9935 Temp     =       194.9393 
PotEng   =     -3241.4915 E_bond   =       700.7321 E_angle  =        17.7726 
E_dihed  =         3.1455 E_impro  =         0.0000 E_vdwl   =      1725.8282 
E_coul   =     20615.0060 E_long   =    -26303.9759 Press    =      3362.2664 
MS2EC Module: pre force
MS2EC Module: post force
---------------- Step       58 ----- CPU =  12018.7040 (sec) ----------------
TotEng   =     -3122.8304 KinEng   =       935.5522 Temp     =       201.9681 
PotEng   =     -4058.3826 E_bond   =       479.1955 E_angle  =        14.3110 
E_dihed  =         3.1619 E_impro  =         0.0000 E_vdwl   =       965.4621 
E_coul   =     20784.1818 E_long   =    -26304.6948 Press    =      4606.4434 
MS2EC Module: pre force
MS2EC Module: post force
---------------- Step       59 ----- CPU =  12227.0298 (sec) ----------------
TotEng   =     -3335.2655 KinEng   =       932.4767 Temp     =       201.3041 
PotEng   =     -4267.7422 E_bond   =       318.5399 E_angle  =        11.6522 
E_dihed  =         3.1694 E_impro  =         0.0000 E_vdwl   =       777.5440 
E_coul   =     20926.5818 E_long   =    -26305.2294 Press    =      5052.2277 
MS2EC Module: pre force
MS2EC Module: post force
---------------- Step       60 ----- CPU =  12434.7721 (sec) ----------------
TotEng   =     -3407.4194 KinEng   =       903.0387 Temp     =       194.9490 
PotEng   =     -4310.4581 E_bond   =       240.0549 E_angle  =        10.0592 
E_dihed  =         3.1704 E_impro  =         0.0000 E_vdwl   =       730.4114 
E_coul   =     21011.3406 E_long   =    -26305.4945 Press    =      -990.9632 
MS2EC Module: pre force
MS2EC Module: post force
---------------- Step       61 ----- CPU =  12651.6959 (sec) ----------------
TotEng   =     -3430.0923 KinEng   =       848.0345 Temp     =       183.0746 
PotEng   =     -4278.1268 E_bond   =       235.5838 E_angle  =         9.5916 
E_dihed  =         3.1659 E_impro  =         0.0000 E_vdwl   =       721.3353 
E_coul   =     21057.9528 E_long   =    -26305.7561 Press    =     -6100.8742 
MS2EC Module: pre force
MS2EC Module: post force
---------------- Step       62 ----- CPU =  12869.4208 (sec) ----------------
TotEng   =     -3448.2166 KinEng   =       840.9795 Temp     =       181.5516 
PotEng   =     -4289.1960 E_bond   =       190.9936 E_angle  =        10.2743 
E_dihed  =         3.1552 E_impro  =         0.0000 E_vdwl   =       724.3725 
E_coul   =     21088.2512 E_long   =    -26306.2429 Press    =     -2944.1526 
MS2EC Module: pre force
MS2EC Module: post force
---------------- Step       63 ----- CPU =  13086.8382 (sec) ----------------
TotEng   =     -3460.3250 KinEng   =       872.1010 Temp     =       188.2701 
PotEng   =     -4332.4259 E_bond   =       143.5757 E_angle  =        12.1975 
E_dihed  =         3.1364 E_impro  =         0.0000 E_vdwl   =       731.9629 
E_coul   =     21083.4440 E_long   =    -26306.7424 Press    =      5009.0432 
MS2EC Module: pre force
MS2EC Module: post force
---------------- Step       64 ----- CPU =  13294.2363 (sec) ----------------
TotEng   =     -3463.8295 KinEng   =       912.6647 Temp     =       197.0271 
PotEng   =     -4376.4942 E_bond   =       167.8691 E_angle  =        15.5563 
E_dihed  =         3.1067 E_impro  =         0.0000 E_vdwl   =       741.7049 
E_coul   =     21002.0382 E_long   =    -26306.7694 Press    =      7696.7767 
MS2EC Module: pre force
MS2EC Module: post force
---------------- Step       65 ----- CPU =  13501.7454 (sec) ----------------
TotEng   =     -3470.9872 KinEng   =       962.2442 Temp     =       207.7304 
PotEng   =     -4433.2314 E_bond   =       260.2837 E_angle  =        20.5865 
E_dihed  =         3.0643 E_impro  =         0.0000 E_vdwl   =       752.8200 
E_coul   =     20836.0977 E_long   =    -26306.0836 Press    =      1103.3700 
MS2EC Module: pre force
MS2EC Module: post force
---------------- Step       66 ----- CPU =  13708.9894 (sec) ----------------
TotEng   =     -3466.2505 KinEng   =       970.5860 Temp     =       209.5312 
PotEng   =     -4436.8365 E_bond   =       435.1999 E_angle  =        27.3600 
E_dihed  =         3.0094 E_impro  =         0.0000 E_vdwl   =       765.0132 
E_coul   =     20637.4758 E_long   =    -26304.8948 Press    =     -7966.7328 
MS2EC Module: pre force
MS2EC Module: post force
---------------- Step       67 ----- CPU =  13932.3037 (sec) ----------------
TotEng   =     -3460.6798 KinEng   =       956.1257 Temp     =       206.4095 
PotEng   =     -4416.8055 E_bond   =       591.8598 E_angle  =        35.4845 
E_dihed  =         2.9450 E_impro  =         0.0000 E_vdwl   =       778.3157 
E_coul   =     20478.1908 E_long   =    -26303.6013 Press    =     -9936.6737 
MS2EC Module: pre force
MS2EC Module: post force
---------------- Step       68 ----- CPU =  14140.5752 (sec) ----------------
TotEng   =     -3455.2234 KinEng   =       925.6713 Temp     =       199.8350 
PotEng   =     -4380.8948 E_bond   =       695.5369 E_angle  =        43.9231 
E_dihed  =         2.8763 E_impro  =         0.0000 E_vdwl   =       793.2037 
E_coul   =     20385.9828 E_long   =    -26302.4176 Press    =     -4263.7135 
MS2EC Module: pre force
MS2EC Module: post force
---------------- Step       69 ----- CPU =  14348.5478 (sec) ----------------
TotEng   =     -3435.6682 KinEng   =       868.7704 Temp     =       187.5511 
PotEng   =     -4304.4386 E_bond   =       799.5979 E_angle  =        51.2455 
E_dihed  =         2.8092 E_impro  =         0.0000 E_vdwl   =       810.9885 
E_coul   =     20332.2658 E_long   =    -26301.3455 Press    =       336.3451 
MS2EC Module: pre force
MS2EC Module: post force
---------------- Step       70 ----- CPU =  14556.6888 (sec) ----------------
TotEng   =     -3415.7639 KinEng   =       854.6989 Temp     =       184.5134 
PotEng   =     -4270.4629 E_bond   =       848.9751 E_angle  =        56.2835 
E_dihed  =         2.7473 E_impro  =         0.0000 E_vdwl   =       834.9359 
E_coul   =     20287.0660 E_long   =    -26300.4706 Press    =     -2672.8931 
MS2EC Module: pre force
MS2EC Module: post force
---------------- Step       71 ----- CPU =  14764.6071 (sec) ----------------
TotEng   =     -3376.8222 KinEng   =       883.7510 Temp     =       190.7852 
PotEng   =     -4260.5732 E_bond   =       836.1443 E_angle  =        58.6250 
E_dihed  =         2.6916 E_impro  =         0.0000 E_vdwl   =       873.8794 
E_coul   =     20268.1999 E_long   =    -26300.1134 Press    =     -9710.7514 
MS2EC Module: pre force
MS2EC Module: post force
---------------- Step       72 ----- CPU =  14972.5131 (sec) ----------------
TotEng   =     -3286.6675 KinEng   =       935.1114 Temp     =       201.8729 
PotEng   =     -4221.7789 E_bond   =       741.6939 E_angle  =        58.5422 
E_dihed  =         2.6403 E_impro  =         0.0000 E_vdwl   =       954.1471 
E_coul   =     20321.7836 E_long   =    -26300.5859 Press    =    -10963.4428 
MS2EC Module: pre force
MS2EC Module: post force
---------------- Step       73 ----- CPU =  15179.7972 (sec) ----------------
TotEng   =     -3070.7612 KinEng   =       997.9972 Temp     =       215.4488 
PotEng   =     -4068.7583 E_bond   =       557.0218 E_angle  =        56.6301 
E_dihed  =         2.5912 E_impro  =         0.0000 E_vdwl   =      1158.0678 
E_coul   =     20458.7496 E_long   =    -26301.8190 Press    =     -1668.5423 
MS2EC Module: pre force
MS2EC Module: post force
---------------- Step       74 ----- CPU =  15387.9362 (sec) ----------------
TotEng   =     -2480.7634 KinEng   =      1008.7625 Temp     =       217.7728 
PotEng   =     -3489.5259 E_bond   =       414.1728 E_angle  =        53.4879 
E_dihed  =         2.5430 E_impro  =         0.0000 E_vdwl   =      1716.9225 
E_coul   =     20626.6912 E_long   =    -26303.3434 Press    =     13524.0302 
MS2EC Module: pre force
MS2EC Module: post force
---------------- Step       75 ----- CPU =  15596.4888 (sec) ----------------
TotEng   =     -1289.9812 KinEng   =       990.4090 Temp     =       213.8106 
PotEng   =     -2280.3902 E_bond   =       343.3618 E_angle  =        49.4127 
E_dihed  =         2.4959 E_impro  =         0.0000 E_vdwl   =      2872.1372 
E_coul   =     20756.8708 E_long   =    -26304.6687 Press    =     27775.7199 
MS2EC Module: pre force
MS2EC Module: post force
---------------- Step       76 ----- CPU =  15794.9084 (sec) ----------------
TotEng   =      -660.9496 KinEng   =       970.5755 Temp     =       209.5289 
PotEng   =     -1631.5251 E_bond   =       329.9412 E_angle  =        44.2613 
E_dihed  =         2.4512 E_impro  =         0.0000 E_vdwl   =      3471.9094 
E_coul   =     20825.5047 E_long   =    -26305.5929 Press    =     28176.9077 
MS2EC Module: pre force
MS2EC Module: post force
---------------- Step       77 ----- CPU =  16003.0822 (sec) ----------------
TotEng   =     -1627.6749 KinEng   =       938.4370 Temp     =       202.5908 
PotEng   =     -2566.1118 E_bond   =       368.2450 E_angle  =        38.2627 
E_dihed  =         2.4106 E_impro  =         0.0000 E_vdwl   =      2472.4476 
E_coul   =     20858.7175 E_long   =    -26306.1952 Press    =     12325.4936 
MS2EC Module: pre force
MS2EC Module: post force
---------------- Step       78 ----- CPU =  16210.9914 (sec) ----------------
TotEng   =     -2496.7133 KinEng   =       939.4269 Temp     =       202.8045 
PotEng   =     -3436.1401 E_bond   =       374.0955 E_angle  =        32.7038 
E_dihed  =         2.3761 E_impro  =         0.0000 E_vdwl   =      1580.9057 
E_coul   =     20880.3676 E_long   =    -26306.5888 Press    =      5836.6257 
MS2EC Module: pre force
MS2EC Module: post force
---------------- Step       79 ----- CPU =  16419.4986 (sec) ----------------
TotEng   =     -2827.0271 KinEng   =       961.5613 Temp     =       207.5829 
PotEng   =     -3788.5884 E_bond   =       394.0425 E_angle  =        28.6993 
E_dihed  =         2.3495 E_impro  =         0.0000 E_vdwl   =      1224.0316 
E_coul   =     20868.9684 E_long   =    -26306.6797 Press    =      9539.3951 
MS2EC Module: pre force
MS2EC Module: post force
---------------- Step       80 ----- CPU =  16627.5895 (sec) ----------------
TotEng   =     -2903.6471 KinEng   =       996.7802 Temp     =       215.1860 
PotEng   =     -3900.4273 E_bond   =       484.7970 E_angle  =        26.5482 
E_dihed  =         2.3329 E_impro  =         0.0000 E_vdwl   =      1112.6999 
E_coul   =     20779.4403 E_long   =    -26306.2455 Press    =     10325.9256 
MS2EC Module: pre force
MS2EC Module: post force
---------------- Step       81 ----- CPU =  16835.9578 (sec) ----------------
TotEng   =     -2875.4571 KinEng   =      1045.1921 Temp     =       225.6373 
PotEng   =     -3920.6492 E_bond   =       642.8847 E_angle  =        26.1101 
E_dihed  =         2.3281 E_impro  =         0.0000 E_vdwl   =      1109.4833 
E_coul   =     20603.7692 E_long   =    -26305.2246 Press    =      3009.5703 
MS2EC Module: pre force
MS2EC Module: post force
---------------- Step       82 ----- CPU =  17044.5300 (sec) ----------------
TotEng   =     -2728.6337 KinEng   =      1042.8944 Temp     =       225.1412 
PotEng   =     -3771.5280 E_bond   =       893.4700 E_angle  =        27.1560 
E_dihed  =         2.3359 E_impro  =         0.0000 E_vdwl   =      1211.9025 
E_coul   =     20397.4340 E_long   =    -26303.8265 Press    =     -5403.9436 
MS2EC Module: pre force
MS2EC Module: post force
---------------- Step       83 ----- CPU =  17253.4732 (sec) ----------------
TotEng   =     -2309.6046 KinEng   =      1014.2397 Temp     =       218.9552 
PotEng   =     -3323.8443 E_bond   =      1120.7537 E_angle  =        29.4375 
E_dihed  =         2.3554 E_impro  =         0.0000 E_vdwl   =      1587.1094 
E_coul   =     20238.8457 E_long   =    -26302.3460 Press    =     -3500.7830 
MS2EC Module: pre force
MS2EC Module: post force
---------------- Step       84 ----- CPU =  17480.5046 (sec) ----------------
TotEng   =      -956.4500 KinEng   =       985.6051 Temp     =       212.7735 
PotEng   =     -1942.0551 E_bond   =      1257.3660 E_angle  =        32.5129 
E_dihed  =         2.3843 E_impro  =         0.0000 E_vdwl   =      2907.1580 
E_coul   =     20159.4491 E_long   =    -26300.9254 Press    =     16348.3466 
MS2EC Module: pre force
MS2EC Module: post force
---------------- Step       85 ----- CPU =  17689.1868 (sec) ----------------
TotEng   =      1990.1983 KinEng   =       952.0013 Temp     =       205.5191 
PotEng   =      1038.1970 E_bond   =      1340.4340 E_angle  =        35.3363 
E_dihed  =         2.4192 E_impro  =         0.0000 E_vdwl   =      5829.6432 
E_coul   =     20129.9368 E_long   =    -26299.5725 Press    =     52305.8962 
MS2EC Module: pre force
MS2EC Module: post force
---------------- Step       86 ----- CPU =  17897.2736 (sec) ----------------
TotEng   =      1567.3978 KinEng   =       968.9763 Temp     =       209.1837 
PotEng   =       598.4215 E_bond   =      1330.4807 E_angle  =        36.3359 
E_dihed  =         2.4567 E_impro  =         0.0000 E_vdwl   =      5410.5377 
E_coul   =     20117.0056 E_long   =    -26298.3952 Press    =     44839.0601 
MS2EC Module: pre force
MS2EC Module: post force
---------------- Step       87 ----- CPU =  18106.4137 (sec) ----------------
TotEng   =     -1277.0940 KinEng   =      1008.7656 Temp     =       217.7735 
PotEng   =     -2285.8596 E_bond   =      1253.6414 E_angle  =        35.3973 
E_dihed  =         2.4942 E_impro  =         0.0000 E_vdwl   =      2587.5000 
E_coul   =     20132.8303 E_long   =    -26297.7228 Press    =      7506.6416 
MS2EC Module: pre force
MS2EC Module: post force
---------------- Step       88 ----- CPU =  18315.2307 (sec) ----------------
TotEng   =     -2405.4287 KinEng   =      1048.2030 Temp     =       226.2873 
PotEng   =     -3453.6318 E_bond   =      1101.4658 E_angle  =        33.6656 
E_dihed  =         2.5305 E_impro  =         0.0000 E_vdwl   =      1490.2660 
E_coul   =     20216.3502 E_long   =    -26297.9098 Press    =     -5877.2872 
MS2EC Module: pre force
MS2EC Module: post force
---------------- Step       89 ----- CPU =  18513.8957 (sec) ----------------
TotEng   =     -2746.5269 KinEng   =      1101.1338 Temp     =       237.7140 
PotEng   =     -3847.6607 E_bond   =       856.4102 E_angle  =        31.8134 
E_dihed  =         2.5644 E_impro  =         0.0000 E_vdwl   =      1190.2192 
E_coul   =     20370.2824 E_long   =    -26298.9502 Press    =     -1477.0790 
MS2EC Module: pre force
MS2EC Module: post force
---------------- Step       90 ----- CPU =  18722.0446 (sec) ----------------
TotEng   =     -2851.1097 KinEng   =      1109.4606 Temp     =       239.5116 
PotEng   =     -3960.5703 E_bond   =       658.0656 E_angle  =        30.1234 
E_dihed  =         2.5944 E_impro  =         0.0000 E_vdwl   =      1111.6543 
E_coul   =     20537.3532 E_long   =    -26300.3612 Press    =      7073.6007 
MS2EC Module: pre force
MS2EC Module: post force
---------------- Step       91 ----- CPU =  18930.7554 (sec) ----------------
TotEng   =     -2863.8374 KinEng   =      1087.6486 Temp     =       234.8028 
PotEng   =     -3951.4860 E_bond   =       551.5088 E_angle  =        28.8482 
E_dihed  =         2.6184 E_impro  =         0.0000 E_vdwl   =      1116.7999 
E_coul   =     20650.2776 E_long   =    -26301.5388 Press    =      8746.2336 
MS2EC Module: pre force
MS2EC Module: post force
---------------- Step       92 ----- CPU =  19139.6027 (sec) ----------------
TotEng   =     -2788.2149 KinEng   =      1062.6847 Temp     =       229.4136 
PotEng   =     -3850.8995 E_bond   =       523.6739 E_angle  =        28.3225 
E_dihed  =         2.6342 E_impro  =         0.0000 E_vdwl   =      1204.2913 
E_coul   =     20692.3296 E_long   =    -26302.1511 Press    =      3275.3045 
MS2EC Module: pre force
MS2EC Module: post force
---------------- Step       93 ----- CPU =  19347.9777 (sec) ----------------
TotEng   =     -2495.8124 KinEng   =      1039.2416 Temp     =       224.3526 
PotEng   =     -3535.0540 E_bond   =       545.5319 E_angle  =        28.8634 
E_dihed  =         2.6398 E_impro  =         0.0000 E_vdwl   =      1491.6401 
E_coul   =     20698.4632 E_long   =    -26302.1924 Press    =      1110.5450 
MS2EC Module: pre force
MS2EC Module: post force
---------------- Step       94 ----- CPU =  19546.6734 (sec) ----------------
TotEng   =     -1604.1339 KinEng   =      1063.0089 Temp     =       229.4836 
PotEng   =     -2667.1428 E_bond   =       519.4179 E_angle  =        30.4749 
E_dihed  =         2.6339 E_impro  =         0.0000 E_vdwl   =      2382.0063 
E_coul   =     20700.0832 E_long   =    -26301.7591 Press    =     13874.1506 
MS2EC Module: pre force
MS2EC Module: post force
---------------- Step       95 ----- CPU =  19755.3743 (sec) ----------------
TotEng   =       270.6734 KinEng   =      1092.2594 Temp     =       235.7982 
PotEng   =      -821.5860 E_bond   =       508.1859 E_angle  =        32.4676 
E_dihed  =         2.6165 E_impro  =         0.0000 E_vdwl   =      4257.4652 
E_coul   =     20678.5169 E_long   =    -26300.8380 Press    =     41482.7151 
MS2EC Module: pre force
MS2EC Module: post force
---------------- Step       96 ----- CPU =  19954.0850 (sec) ----------------
TotEng   =       590.0712 KinEng   =      1111.7756 Temp     =       240.0114 
PotEng   =      -521.7044 E_bond   =       562.6467 E_angle  =        33.6299 
E_dihed  =         2.5896 E_impro  =         0.0000 E_vdwl   =      4590.1338 
E_coul   =     20588.6781 E_long   =    -26299.3824 Press    =     46779.3397 
MS2EC Module: pre force
MS2EC Module: post force
---------------- Step       97 ----- CPU =  20162.6424 (sec) ----------------
TotEng   =     -1354.2373 KinEng   =      1140.0663 Temp     =       246.1188 
PotEng   =     -2494.3036 E_bond   =       659.2526 E_angle  =        33.5545 
E_dihed  =         2.5561 E_impro  =         0.0000 E_vdwl   =      2686.0840 
E_coul   =     20421.8038 E_long   =    -26297.5547 Press    =     19001.6783 
MS2EC Module: pre force
MS2EC Module: post force
---------------- Step       98 ----- CPU =  20371.6323 (sec) ----------------
TotEng   =     -2488.1804 KinEng   =      1126.0161 Temp     =       243.0856 
PotEng   =     -3614.1964 E_bond   =       823.3979 E_angle  =        32.8382 
E_dihed  =         2.5189 E_impro  =         0.0000 E_vdwl   =      1590.2809 
E_coul   =     20232.5343 E_long   =    -26295.7666 Press    =     -1917.5033 
MS2EC Module: pre force
MS2EC Module: post force
---------------- Step       99 ----- CPU =  20590.0188 (sec) ----------------
TotEng   =     -2886.1869 KinEng   =      1092.5063 Temp     =       235.8515 
PotEng   =     -3978.6932 E_bond   =       959.6688 E_angle  =        31.9985 
E_dihed  =         2.4805 E_impro  =         0.0000 E_vdwl   =      1225.3761 
E_coul   =     20096.1790 E_long   =    -26294.3962 Press    =     -7321.1330 
MS2EC Module: pre force
MS2EC Module: post force
---------------- Step      100 ----- CPU =  20798.6322 (sec) ----------------
TotEng   =     -3028.4815 KinEng   =      1058.7819 Temp     =       228.5710 
PotEng   =     -4087.2634 E_bond   =      1025.0819 E_angle  =        31.2761 
E_dihed  =         2.4436 E_impro  =         0.0000 E_vdwl   =      1106.5131 
E_coul   =     20040.9095 E_long   =    -26293.4876 Press    =     -2360.1088 
MS2EC Module: pre force
MS2EC Module: post force
---------------- Step      101 ----- CPU =  21016.1173 (sec) ----------------
TotEng   =     -3072.8935 KinEng   =      1027.6039 Temp     =       221.8403 
PotEng   =     -4100.4974 E_bond   =      1056.8177 E_angle  =        30.7773 
E_dihed  =         2.4106 E_impro  =         0.0000 E_vdwl   =      1066.0747 
E_coul   =     20036.2625 E_long   =    -26292.8402 Press    =      2140.1365 
MS2EC Module: pre force
MS2EC Module: post force
---------------- Step      102 ----- CPU =  21224.3806 (sec) ----------------
TotEng   =     -3086.9025 KinEng   =      1053.1098 Temp     =       227.3465 
PotEng   =     -4140.0123 E_bond   =      1014.7529 E_angle  =        30.5510 
E_dihed  =         2.3835 E_impro  =         0.0000 E_vdwl   =      1055.6310 
E_coul   =     20049.0354 E_long   =    -26292.3661 Press    =      -841.5752 
MS2EC Module: pre force
MS2EC Module: post force
---------------- Step      103 ----- CPU =  21422.3164 (sec) ----------------
TotEng   =     -3072.8619 KinEng   =      1098.6973 Temp     =       237.1880 
PotEng   =     -4171.5592 E_bond   =       935.7352 E_angle  =        30.6088 
E_dihed  =         2.3637 E_impro  =         0.0000 E_vdwl   =      1061.6975 
E_coul   =     20090.3021 E_long   =    -26292.2664 Press    =     -7746.1572 
MS2EC Module: pre force
MS2EC Module: post force
---------------- Step      104 ----- CPU =  21630.2079 (sec) ----------------
TotEng   =     -3026.0939 KinEng   =      1133.5721 Temp     =       244.7168 
PotEng   =     -4159.6661 E_bond   =       820.2544 E_angle  =        30.9401 
E_dihed  =         2.3518 E_impro  =         0.0000 E_vdwl   =      1085.1415 
E_coul   =     20194.5043 E_long   =    -26292.8582 Press    =     -8957.1557 
MS2EC Module: pre force
MS2EC Module: post force
---------------- Step      105 ----- CPU =  21838.1674 (sec) ----------------
TotEng   =     -2939.2736 KinEng   =      1169.5020 Temp     =       252.4734 
PotEng   =     -4108.7756 E_bond   =       648.7950 E_angle  =        31.5296 
E_dihed  =         2.3479 E_impro  =         0.0000 E_vdwl   =      1144.2998 
E_coul   =     20358.4507 E_long   =    -26294.1986 Press    =      -725.2319 
MS2EC Module: pre force
MS2EC Module: post force
---------------- Step      106 ----- CPU =  22056.5374 (sec) ----------------
TotEng   =     -2723.8537 KinEng   =      1168.8894 Temp     =       252.3412 
PotEng   =     -3892.7431 E_bond   =       536.2344 E_angle  =        32.3517 
E_dihed  =         2.3514 E_impro  =         0.0000 E_vdwl   =      1311.8978 
E_coul   =     20520.3304 E_long   =    -26295.9087 Press    =     10108.0013 
MS2EC Module: pre force
MS2EC Module: post force
---------------- Step      107 ----- CPU =  22265.2940 (sec) ----------------
TotEng   =     -2104.8891 KinEng   =      1157.6206 Temp     =       249.9084 
PotEng   =     -3262.5096 E_bond   =       510.0419 E_angle  =        33.3034 
E_dihed  =         2.3613 E_impro  =         0.0000 E_vdwl   =      1876.5836 
E_coul   =     20612.6563 E_long   =    -26297.4561 Press    =     17176.3905 
MS2EC Module: pre force
MS2EC Module: post force
---------------- Step      108 ----- CPU =  22474.5854 (sec) ----------------
TotEng   =      -218.4821 KinEng   =      1140.6235 Temp     =       246.2391 
PotEng   =     -1359.1056 E_bond   =       566.7998 E_angle  =        34.0231 
E_dihed  =         2.3765 E_impro  =         0.0000 E_vdwl   =      3714.2033 
E_coul   =     20622.0366 E_long   =    -26298.5449 Press    =     29835.2422 
MS2EC Module: pre force
MS2EC Module: post force
---------------- Step      109 ----- CPU =  22683.4231 (sec) ----------------
TotEng   =      2169.1790 KinEng   =      1111.1412 Temp     =       239.8744 
PotEng   =      1058.0378 E_bond   =       665.8672 E_angle  =        33.6667 
E_dihed  =         2.3970 E_impro  =         0.0000 E_vdwl   =      6064.9139 
E_coul   =     20590.3670 E_long   =    -26299.1741 Press    =     49348.7704 
MS2EC Module: pre force
MS2EC Module: post force
---------------- Step      110 ----- CPU =  22891.7540 (sec) ----------------
TotEng   =       209.7880 KinEng   =      1135.9306 Temp     =       245.2260 
PotEng   =      -926.1426 E_bond   =       670.1868 E_angle  =        31.4722 
E_dihed  =         2.4231 E_impro  =         0.0000 E_vdwl   =      4111.3109 
E_coul   =     20557.8413 E_long   =    -26299.3770 Press    =     31490.0450 
MS2EC Module: pre force
MS2EC Module: post force
---------------- Step      111 ----- CPU =  23100.6424 (sec) ----------------
TotEng   =     -1875.1354 KinEng   =      1176.4274 Temp     =       253.9685 
PotEng   =     -3051.5628 E_bond   =       646.8208 E_angle  =        28.0515 
E_dihed  =         2.4552 E_impro  =         0.0000 E_vdwl   =      2056.0867 
E_coul   =     20514.0399 E_long   =    -26299.0170 Press    =     16846.8490 
MS2EC Module: pre force
MS2EC Module: post force
---------------- Step      112 ----- CPU =  23309.2250 (sec) ----------------
TotEng   =     -2569.1840 KinEng   =      1196.4936 Temp     =       258.3004 
PotEng   =     -3765.6777 E_bond   =       691.0704 E_angle  =        24.4415 
E_dihed  =         2.4934 E_impro  =         0.0000 E_vdwl   =      1396.3007 
E_coul   =     20417.9662 E_long   =    -26297.9498 Press    =     11213.4777 
MS2EC Module: pre force
MS2EC Module: post force
---------------- Step      113 ----- CPU =  23518.1471 (sec) ----------------
TotEng   =     -2790.7725 KinEng   =      1202.9267 Temp     =       259.6892 
PotEng   =     -3993.6993 E_bond   =       806.1823 E_angle  =        21.2980 
E_dihed  =         2.5373 E_impro  =         0.0000 E_vdwl   =      1210.4948 
E_coul   =     20262.1379 E_long   =    -26296.3496 Press    =      1561.1306 
MS2EC Module: pre force
MS2EC Module: post force
---------------- Step      114 ----- CPU =  23726.9567 (sec) ----------------
TotEng   =     -2859.1036 KinEng   =      1167.1607 Temp     =       251.9680 
PotEng   =     -4026.2643 E_bond   =       988.2881 E_angle  =        19.0294 
E_dihed  =         2.5866 E_impro  =         0.0000 E_vdwl   =      1159.1788 
E_coul   =     20099.4214 E_long   =    -26294.7687 Press    =     -8085.7962 
MS2EC Module: pre force
MS2EC Module: post force
---------------- Step      115 ----- CPU =  23935.4634 (sec) ----------------
TotEng   =     -2867.2614 KinEng   =      1139.6791 Temp     =       246.0352 
PotEng   =     -4006.9405 E_bond   =      1104.5353 E_angle  =        17.9623 
E_dihed  =         2.6397 E_impro  =         0.0000 E_vdwl   =      1162.1316 
E_coul   =     19999.5699 E_long   =    -26293.7793 Press    =     -9027.5013 
MS2EC Module: pre force
MS2EC Module: post force
---------------- Step      116 ----- CPU =  24144.0286 (sec) ----------------
TotEng   =     -2817.8188 KinEng   =      1136.5707 Temp     =       245.3642 
PotEng   =     -3954.3895 E_bond   =      1118.7321 E_angle  =        18.3775 
E_dihed  =         2.6936 E_impro  =         0.0000 E_vdwl   =      1217.3425 
E_coul   =     19982.0065 E_long   =    -26293.5418 Press    =     -1537.6155 
MS2EC Module: pre force
MS2EC Module: post force
---------------- Step      117 ----- CPU =  24361.7445 (sec) ----------------
TotEng   =     -2633.5711 KinEng   =      1132.3718 Temp     =       244.4577 
PotEng   =     -3765.9429 E_bond   =      1106.3257 E_angle  =        20.4280 
E_dihed  =         2.7441 E_impro  =         0.0000 E_vdwl   =      1389.9180 
E_coul   =     20008.4779 E_long   =    -26293.8365 Press    =      5685.6582 
MS2EC Module: pre force
MS2EC Module: post force
---------------- Step      118 ----- CPU =  24572.0818 (sec) ----------------
TotEng   =     -2094.3901 KinEng   =      1161.2824 Temp     =       250.6990 
PotEng   =     -3255.6725 E_bond   =      1050.0745 E_angle  =        23.9437 
E_dihed  =         2.7863 E_impro  =         0.0000 E_vdwl   =      1919.2503 
E_coul   =     20042.7436 E_long   =    -26294.4710 Press    =      8652.1477 
MS2EC Module: pre force
MS2EC Module: post force
---------------- Step      119 ----- CPU =  24791.6261 (sec) ----------------
TotEng   =      -667.8622 KinEng   =      1193.7366 Temp     =       257.7052 
PotEng   =     -1861.5989 E_bond   =       969.6893 E_angle  =        28.1932 
E_dihed  =         2.8167 E_impro  =         0.0000 E_vdwl   =      3336.0228 
E_coul   =     20097.1682 E_long   =    -26295.4892 Press    =     17023.1069 
MS2EC Module: pre force
MS2EC Module: post force
---------------- Step      120 ----- CPU =  25000.1161 (sec) ----------------
TotEng   =       842.4821 KinEng   =      1219.2448 Temp     =       263.2119 
PotEng   =      -376.7627 E_bond   =       828.9491 E_angle  =        31.8849 
E_dihed  =         2.8343 E_impro  =         0.0000 E_vdwl   =      4848.4067 
E_coul   =     20208.1695 E_long   =    -26297.0073 Press    =     32120.6942 
MS2EC Module: pre force
MS2EC Module: post force
---------------- Step      121 ----- CPU =  25208.2094 (sec) ----------------
TotEng   =      -374.4471 KinEng   =      1250.5978 Temp     =       269.9805 
PotEng   =     -1625.0450 E_bond   =       603.0164 E_angle  =        33.9437 
E_dihed  =         2.8403 E_impro  =         0.0000 E_vdwl   =      3661.3070 
E_coul   =     20372.7813 E_long   =    -26298.9337 Press    =     27356.8168 
MS2EC Module: pre force
MS2EC Module: post force
---------------- Step      122 ----- CPU =  25416.7208 (sec) ----------------
TotEng   =     -1977.8828 KinEng   =      1236.1696 Temp     =       266.8657 
PotEng   =     -3214.0524 E_bond   =       431.9601 E_angle  =        34.4524 
E_dihed  =         2.8373 E_impro  =         0.0000 E_vdwl   =      2089.8151 
E_coul   =     20527.7952 E_long   =    -26300.9125 Press    =     19525.7245 
MS2EC Module: pre force
MS2EC Module: post force
---------------- Step      123 ----- CPU =  25624.7639 (sec) ----------------
TotEng   =     -2648.6965 KinEng   =      1213.3787 Temp     =       261.9456 
PotEng   =     -3862.0752 E_bond   =       345.6934 E_angle  =        34.0675 
E_dihed  =         2.8284 E_impro  =         0.0000 E_vdwl   =      1452.7015 
E_coul   =     20605.2228 E_long   =    -26302.5888 Press    =     13398.7795 
MS2EC Module: pre force
MS2EC Module: post force
---------------- Step      124 ----- CPU =  25832.5090 (sec) ----------------
TotEng   =     -2891.2847 KinEng   =      1209.8024 Temp     =       261.1735 
PotEng   =     -4101.0872 E_bond   =       334.3282 E_angle  =        33.3437 
E_dihed  =         2.8164 E_impro  =         0.0000 E_vdwl   =      1239.5303 
E_coul   =     20592.7579 E_long   =    -26303.8637 Press    =      3942.8426 
MS2EC Module: pre force
MS2EC Module: post force
---------------- Step      125 ----- CPU =  26040.8379 (sec) ----------------
TotEng   =     -2977.9991 KinEng   =      1208.4942 Temp     =       260.8911 
PotEng   =     -4186.4932 E_bond   =       383.9483 E_angle  =        32.6163 
E_dihed  =         2.8038 E_impro  =         0.0000 E_vdwl   =      1163.8549 
E_coul   =     20535.1147 E_long   =    -26304.8312 Press    =     -2381.5335 
MS2EC Module: pre force
MS2EC Module: post force
---------------- Step      126 ----- CPU =  26249.4931 (sec) ----------------
TotEng   =     -3013.9208 KinEng   =      1237.6649 Temp     =       267.1885 
PotEng   =     -4251.5857 E_bond   =       404.6780 E_angle  =        32.0343 
E_dihed  =         2.7927 E_impro  =         0.0000 E_vdwl   =      1137.8503 
E_coul   =     20476.5343 E_long   =    -26305.4753 Press    =       420.0230 
MS2EC Module: pre force
MS2EC Module: post force
---------------- Step      127 ----- CPU =  26448.3696 (sec) ----------------
TotEng   =     -3012.4568 KinEng   =      1259.1016 Temp     =       271.8163 
PotEng   =     -4271.5584 E_bond   =       449.2149 E_angle  =        31.6294 
E_dihed  =         2.7848 E_impro  =         0.0000 E_vdwl   =      1137.8166 
E_coul   =     20412.5167 E_long   =    -26305.5208 Press    =      7479.1641 
MS2EC Module: pre force
MS2EC Module: post force
---------------- Step      128 ----- CPU =  26656.3931 (sec) ----------------
TotEng   =     -2975.4539 KinEng   =      1263.9588 Temp     =       272.8648 
PotEng   =     -4239.4127 E_bond   =       557.5393 E_angle  =        31.3922 
E_dihed  =         2.7808 E_impro  =         0.0000 E_vdwl   =      1164.5827 
E_coul   =     20308.9755 E_long   =    -26304.6832 Press    =      8821.0100 
MS2EC Module: pre force
MS2EC Module: post force
---------------- Step      129 ----- CPU =  26864.8326 (sec) ----------------
TotEng   =     -2887.9946 KinEng   =      1267.3301 Temp     =       273.5926 
PotEng   =     -4155.3246 E_bond   =       705.2754 E_angle  =        31.3287 
E_dihed  =         2.7808 E_impro  =         0.0000 E_vdwl   =      1244.5326 
E_coul   =     20163.7979 E_long   =    -26303.0401 Press    =      1936.3254 
MS2EC Module: pre force
MS2EC Module: post force
---------------- Step      130 ----- CPU =  27073.1593 (sec) ----------------
TotEng   =     -2638.5955 KinEng   =      1229.8285 Temp     =       265.4968 
PotEng   =     -3868.4240 E_bond   =       894.8052 E_angle  =        31.4617 
E_dihed  =         2.7839 E_impro  =         0.0000 E_vdwl   =      1472.3246 
E_coul   =     20031.3325 E_long   =    -26301.1319 Press    =     -4405.7819 
MS2EC Module: pre force
MS2EC Module: post force
---------------- Step      131 ----- CPU =  27281.7702 (sec) ----------------
TotEng   =     -1949.0469 KinEng   =      1193.1975 Temp     =       257.5888 
PotEng   =     -3142.2444 E_bond   =      1005.4214 E_angle  =        31.7259 
E_dihed  =         2.7892 E_impro  =         0.0000 E_vdwl   =      2141.5845 
E_coul   =     19975.8910 E_long   =    -26299.6563 Press    =      2284.6572 
MS2EC Module: pre force
MS2EC Module: post force
---------------- Step      132 ----- CPU =  27480.8113 (sec) ----------------
TotEng   =      -415.4469 KinEng   =      1182.8391 Temp     =       255.3526 
PotEng   =     -1598.2860 E_bond   =       994.2773 E_angle  =        31.7469 
E_dihed  =         2.7957 E_impro  =         0.0000 E_vdwl   =      3665.1886 
E_coul   =     20006.6820 E_long   =    -26298.9766 Press    =     25951.3922 
MS2EC Module: pre force
MS2EC Module: post force
---------------- Step      133 ----- CPU =  27679.3477 (sec) ----------------
TotEng   =       457.9913 KinEng   =      1188.8595 Temp     =       256.6523 
PotEng   =      -730.8682 E_bond   =       923.7917 E_angle  =        30.7791 
E_dihed  =         2.8028 E_impro  =         0.0000 E_vdwl   =      4535.4948 
E_coul   =     20075.2567 E_long   =    -26298.9933 Press    =     40997.4974 
MS2EC Module: pre force
MS2EC Module: post force
---------------- Step      134 ----- CPU =  27887.2642 (sec) ----------------
TotEng   =     -1056.1223 KinEng   =      1234.8592 Temp     =       266.5828 
PotEng   =     -2290.9815 E_bond   =       797.6772 E_angle  =        28.5237 
E_dihed  =         2.8094 E_impro  =         0.0000 E_vdwl   =      3040.9828 
E_coul   =     20138.5110 E_long   =    -26299.4857 Press    =     22559.0599 
MS2EC Module: pre force
MS2EC Module: post force
---------------- Step      135 ----- CPU =  28095.4965 (sec) ----------------
TotEng   =     -2334.0788 KinEng   =      1264.9359 Temp     =       273.0758 
PotEng   =     -3599.0147 E_bond   =       679.9930 E_angle  =        25.7699 
E_dihed  =         2.8144 E_impro  =         0.0000 E_vdwl   =      1786.6689 
E_coul   =     20206.1218 E_long   =    -26300.3826 Press    =      2513.0725 
MS2EC Module: pre force
MS2EC Module: post force
---------------- Step      136 ----- CPU =  28312.6148 (sec) ----------------
TotEng   =     -2825.1381 KinEng   =      1269.4301 Temp     =       274.0460 
PotEng   =     -4094.5681 E_bond   =       549.4993 E_angle  =        23.3891 
E_dihed  =         2.8169 E_impro  =         0.0000 E_vdwl   =      1316.1732 
E_coul   =     20315.2218 E_long   =    -26301.6683 Press    =     -3511.1197 
MS2EC Module: pre force
MS2EC Module: post force
---------------- Step      137 ----- CPU =  28520.6793 (sec) ----------------
TotEng   =     -3009.1129 KinEng   =      1281.5973 Temp     =       276.6727 
PotEng   =     -4290.7102 E_bond   =       362.8744 E_angle  =        21.7789 
E_dihed  =         2.8169 E_impro  =         0.0000 E_vdwl   =      1157.7272 
E_coul   =     20467.2414 E_long   =    -26303.1490 Press    =      2648.7728 
MS2EC Module: pre force
MS2EC Module: post force
---------------- Step      138 ----- CPU =  28728.7950 (sec) ----------------
TotEng   =     -3080.4544 KinEng   =      1265.3511 Temp     =       273.1654 
PotEng   =     -4345.8055 E_bond   =       230.8660 E_angle  =        20.9567 
E_dihed  =         2.8152 E_impro  =         0.0000 E_vdwl   =      1098.8049 
E_coul   =     20605.1966 E_long   =    -26304.4448 Press    =     10621.2449 
MS2EC Module: pre force
MS2EC Module: post force
---------------- Step      139 ----- CPU =  28946.5800 (sec) ----------------
TotEng   =     -3116.2689 KinEng   =      1246.9780 Temp     =       269.1990 
PotEng   =     -4363.2469 E_bond   =       179.3563 E_angle  =        20.7147 
E_dihed  =         2.8136 E_impro  =         0.0000 E_vdwl   =      1073.5166 
E_coul   =     20665.6137 E_long   =    -26305.2618 Press    =     10424.8253 
MS2EC Module: pre force
MS2EC Module: post force
---------------- Step      140 ----- CPU =  29164.3164 (sec) ----------------
TotEng   =     -3137.4341 KinEng   =      1239.1974 Temp     =       267.5193 
PotEng   =     -4376.6315 E_bond   =       205.8845 E_angle  =        20.7405 
E_dihed  =         2.8137 E_impro  =         0.0000 E_vdwl   =      1060.9275 
E_coul   =     20638.6181 E_long   =    -26305.6159 Press    =      2575.8921 
MS2EC Module: pre force
MS2EC Module: post force
---------------- Step      141 ----- CPU =  29382.3506 (sec) ----------------
TotEng   =     -3141.6680 KinEng   =      1235.3462 Temp     =       266.6879 
PotEng   =     -4377.0142 E_bond   =       283.1143 E_angle  =        20.7122 
E_dihed  =         2.8165 E_impro  =         0.0000 E_vdwl   =      1053.7604 
E_coul   =     20568.3301 E_long   =    -26305.7476 Press    =     -3230.9708 
MS2EC Module: pre force
MS2EC Module: post force
---------------- Step      142 ----- CPU =  29590.3013 (sec) ----------------
TotEng   =     -3149.2500 KinEng   =      1270.1733 Temp     =       274.2064 
PotEng   =     -4419.4233 E_bond   =       315.9283 E_angle  =        20.3746 
E_dihed  =         2.8216 E_impro  =         0.0000 E_vdwl   =      1049.2951 
E_coul   =     20497.9435 E_long   =    -26305.7865 Press    =      -240.1848 
MS2EC Module: pre force
MS2EC Module: post force
---------------- Step      143 ----- CPU =  29798.1376 (sec) ----------------
TotEng   =     -3148.2733 KinEng   =      1290.0695 Temp     =       278.5017 
PotEng   =     -4438.3428 E_bond   =       375.7496 E_angle  =        19.6044 
E_dihed  =         2.8269 E_impro  =         0.0000 E_vdwl   =      1046.4552 
E_coul   =     20422.5809 E_long   =    -26305.5597 Press    =      6572.9229 
MS2EC Module: pre force
MS2EC Module: post force
---------------- Step      144 ----- CPU =  30006.0403 (sec) ----------------
TotEng   =     -3139.9999 KinEng   =      1277.6009 Temp     =       275.8099 
PotEng   =     -4417.6008 E_bond   =       510.3044 E_angle  =        18.4594 
E_dihed  =         2.8290 E_impro  =         0.0000 E_vdwl   =      1044.7787 
E_coul   =     20310.8617 E_long   =    -26304.8339 Press    =      7207.5579 
MS2EC Module: pre force
MS2EC Module: post force
---------------- Step      145 ----- CPU =  30214.0720 (sec) ----------------
TotEng   =     -3136.7349 KinEng   =      1264.1504 Temp     =       272.9062 
PotEng   =     -4400.8852 E_bond   =       673.7237 E_angle  =        17.1664 
E_dihed  =         2.8241 E_impro  =         0.0000 E_vdwl   =      1044.0714 
E_coul   =     20164.9803 E_long   =    -26303.6512 Press    =      -759.4596 
MS2EC Module: pre force
MS2EC Module: post force
---------------- Step      146 ----- CPU =  30421.7394 (sec) ----------------
TotEng   =     -3124.3056 KinEng   =      1232.9586 Temp     =       266.1725 
PotEng   =     -4357.2642 E_bond   =       839.4089 E_angle  =        15.9987 
E_dihed  =         2.8099 E_impro  =         0.0000 E_vdwl   =      1044.3287 
E_coul   =     20042.5547 E_long   =    -26302.3651 Press    =     -9282.3581 
MS2EC Module: pre force
MS2EC Module: post force
---------------- Step      147 ----- CPU =  30629.4139 (sec) ----------------
TotEng   =     -3114.3497 KinEng   =      1222.4745 Temp     =       263.9092 
PotEng   =     -4336.8243 E_bond   =       893.7206 E_angle  =        15.1388 
E_dihed  =         2.7881 E_impro  =         0.0000 E_vdwl   =      1045.6536 
E_coul   =     20007.2778 E_long   =    -26301.4031 Press    =     -9194.3039 
MS2EC Module: pre force
MS2EC Module: post force
---------------- Step      148 ----- CPU =  30846.5949 (sec) ----------------
TotEng   =     -3103.5070 KinEng   =      1233.5922 Temp     =       266.3093 
PotEng   =     -4337.0991 E_bond   =       834.5631 E_angle  =        14.6605 
E_dihed  =         2.7635 E_impro  =         0.0000 E_vdwl   =      1048.3817 
E_coul   =     20063.5261 E_long   =    -26300.9940 Press    =     -1418.3946 
MS2EC Module: pre force
MS2EC Module: post force
---------------- Step      149 ----- CPU =  31064.8822 (sec) ----------------
TotEng   =     -3079.6553 KinEng   =      1243.0037 Temp     =       268.3411 
PotEng   =     -4322.6590 E_bond   =       751.8541 E_angle  =        14.6081 
E_dihed  =         2.7409 E_impro  =         0.0000 E_vdwl   =      1053.6599 
E_coul   =     20155.6136 E_long   =    -26301.1356 Press    =      4380.9376 
MS2EC Module: pre force
MS2EC Module: post force
---------------- Step      150 ----- CPU =  31273.0239 (sec) ----------------
TotEng   =     -3055.1054 KinEng   =      1283.4971 Temp     =       277.0828 
PotEng   =     -4338.6025 E_bond   =       645.4349 E_angle  =        15.0669 
E_dihed  =         2.7235 E_impro  =         0.0000 E_vdwl   =      1065.1323 
E_coul   =     20234.8300 E_long   =    -26301.7901 Press    =      1908.0246 
MS2EC Module: pre force
MS2EC Module: post force
---------------- Step      151 ----- CPU =  31481.8596 (sec) ----------------
TotEng   =     -3005.6889 KinEng   =      1314.8307 Temp     =       283.8471 
PotEng   =     -4320.5196 E_bond   =       563.2951 E_angle  =        16.1621 
E_dihed  =         2.7123 E_impro  =         0.0000 E_vdwl   =      1094.3289 
E_coul   =     20305.9660 E_long   =    -26302.9842 Press    =     -4419.6293 
MS2EC Module: pre force
MS2EC Module: post force
---------------- Step      152 ----- CPU =  31690.1873 (sec) ----------------
TotEng   =     -2890.6584 KinEng   =      1321.3437 Temp     =       285.2532 
PotEng   =     -4212.0021 E_bond   =       487.2112 E_angle  =        17.9951 
E_dihed  =         2.7071 E_impro  =         0.0000 E_vdwl   =      1180.4674 
E_coul   =     20404.2917 E_long   =    -26304.6747 Press    =     -4424.8746 
MS2EC Module: pre force
MS2EC Module: post force
---------------- Step      153 ----- CPU =  31922.9836 (sec) ----------------
TotEng   =     -2576.6918 KinEng   =      1324.2148 Temp     =       285.8730 
PotEng   =     -3900.9067 E_bond   =       381.1267 E_angle  =        20.5391 
E_dihed  =         2.7075 E_impro  =         0.0000 E_vdwl   =      1468.4762 
E_coul   =     20532.8209 E_long   =    -26306.5771 Press    =      6325.7723 
MS2EC Module: pre force
MS2EC Module: post force
---------------- Step      154 ----- CPU =  32140.8925 (sec) ----------------
TotEng   =     -1577.1783 KinEng   =      1298.9019 Temp     =       280.4084 
PotEng   =     -2876.0802 E_bond   =       330.6161 E_angle  =        23.4968 
E_dihed  =         2.7130 E_impro  =         0.0000 E_vdwl   =      2434.5564 
E_coul   =     20640.7633 E_long   =    -26308.2257 Press    =     24749.6048 
MS2EC Module: pre force
MS2EC Module: post force
---------------- Step      155 ----- CPU =  32349.1305 (sec) ----------------
TotEng   =       412.9197 KinEng   =      1287.8016 Temp     =       278.0121 
PotEng   =      -874.8819 E_bond   =       327.6730 E_angle  =        26.1524 
E_dihed  =         2.7232 E_impro  =         0.0000 E_vdwl   =      4405.4232 
E_coul   =     20672.3947 E_long   =    -26309.2484 Press    =     45379.7804 
MS2EC Module: pre force
MS2EC Module: post force
---------------- Step      156 ----- CPU =  32547.5852 (sec) ----------------
TotEng   =       322.8811 KinEng   =      1300.6572 Temp     =       280.7873 
PotEng   =      -977.7760 E_bond   =       363.6979 E_angle  =        27.5773 
E_dihed  =         2.7369 E_impro  =         0.0000 E_vdwl   =      4314.6823 
E_coul   =     20623.1143 E_long   =    -26309.5847 Press    =     36478.0095 
MS2EC Module: pre force
MS2EC Module: post force
---------------- Step      157 ----- CPU =  32755.4428 (sec) ----------------
TotEng   =     -1653.7066 KinEng   =      1309.9656 Temp     =       282.7968 
PotEng   =     -2963.6721 E_bond   =       432.2894 E_angle  =        27.5620 
E_dihed  =         2.7527 E_impro  =         0.0000 E_vdwl   =      2343.2548 
E_coul   =     20539.9492 E_long   =    -26309.4802 Press    =      9731.8315 
MS2EC Module: pre force
MS2EC Module: post force
---------------- Step      158 ----- CPU =  32973.2292 (sec) ----------------
TotEng   =     -2597.9925 KinEng   =      1340.4025 Temp     =       289.3676 
PotEng   =     -3938.3950 E_bond   =       455.9376 E_angle  =        26.5960 
E_dihed  =         2.7699 E_impro  =         0.0000 E_vdwl   =      1419.7063 
E_coul   =     20465.8104 E_long   =    -26309.2151 Press    =      2978.6667 
MS2EC Module: pre force
MS2EC Module: post force
---------------- Step      159 ----- CPU =  33181.3253 (sec) ----------------
TotEng   =     -2889.1869 KinEng   =      1356.9833 Temp     =       292.9471 
PotEng   =     -4246.1703 E_bond   =       495.6072 E_angle  =        25.0624 
E_dihed  =         2.7879 E_impro  =         0.0000 E_vdwl   =      1145.2060 
E_coul   =     20393.9765 E_long   =    -26308.8104 Press    =      6871.6116 
MS2EC Module: pre force
MS2EC Module: post force
---------------- Step      160 ----- CPU =  33379.8617 (sec) ----------------
TotEng   =     -2982.9818 KinEng   =      1350.5901 Temp     =       291.5669 
PotEng   =     -4333.5719 E_bond   =       595.6148 E_angle  =        23.1219 
E_dihed  =         2.8059 E_impro  =         0.0000 E_vdwl   =      1061.3559 
E_coul   =     20291.6510 E_long   =    -26308.1214 Press    =      6643.9694 
MS2EC Module: pre force
MS2EC Module: post force
---------------- Step      161 ----- CPU =  33588.0445 (sec) ----------------
TotEng   =     -3025.3360 KinEng   =      1338.9733 Temp     =       289.0591 
PotEng   =     -4364.3093 E_bond   =       727.3947 E_angle  =        20.8190 
E_dihed  =         2.8216 E_impro  =         0.0000 E_vdwl   =      1031.3050 
E_coul   =     20160.5368 E_long   =    -26307.1864 Press    =     -1409.1770 
MS2EC Module: pre force
MS2EC Module: post force
---------------- Step      162 ----- CPU =  33795.4271 (sec) ----------------
TotEng   =     -3038.8182 KinEng   =      1303.8410 Temp     =       281.4747 
PotEng   =     -4342.6592 E_bond   =       866.5295 E_angle  =        18.1646 
E_dihed  =         2.8318 E_impro  =         0.0000 E_vdwl   =      1018.4082 
E_coul   =     20057.7343 E_long   =    -26306.3277 Press    =     -9558.0655 
MS2EC Module: pre force
MS2EC Module: post force
---------------- Step      163 ----- CPU =  34003.5005 (sec) ----------------
TotEng   =     -3049.0037 KinEng   =      1297.6733 Temp     =       280.1432 
PotEng   =     -4346.6770 E_bond   =       884.0979 E_angle  =        15.2117 
E_dihed  =         2.8316 E_impro  =         0.0000 E_vdwl   =      1012.0158 
E_coul   =     20045.0486 E_long   =    -26305.8826 Press    =     -8866.1225 
MS2EC Module: pre force
MS2EC Module: post force
---------------- Step      164 ----- CPU =  34211.8814 (sec) ----------------
TotEng   =     -3058.5650 KinEng   =      1324.1297 Temp     =       285.8546 
PotEng   =     -4382.6947 E_bond   =       775.4658 E_angle  =        12.1297 
E_dihed  =         2.8156 E_impro  =         0.0000 E_vdwl   =      1008.5696 
E_coul   =     20124.2340 E_long   =    -26305.9094 Press    =      -572.4121 
MS2EC Module: pre force
MS2EC Module: post force
---------------- Step      165 ----- CPU =  34420.2689 (sec) ----------------
TotEng   =     -3057.6884 KinEng   =      1342.5891 Temp     =       289.8397 
PotEng   =     -4400.2775 E_bond   =       650.4953 E_angle  =         9.2469 
E_dihed  =         2.7781 E_impro  =         0.0000 E_vdwl   =      1006.5656 
E_coul   =     20236.8738 E_long   =    -26306.2373 Press    =      5403.8085 
MS2EC Module: pre force
MS2EC Module: post force
---------------- Step      166 ----- CPU =  34627.9694 (sec) ----------------
TotEng   =     -3061.9440 KinEng   =      1369.7208 Temp     =       295.6969 
PotEng   =     -4431.6648 E_bond   =       528.7325 E_angle  =         7.0019 
E_dihed  =         2.7157 E_impro  =         0.0000 E_vdwl   =      1005.1461 
E_coul   =     20331.5054 E_long   =    -26306.7664 Press    =      2776.9542 
MS2EC Module: pre force
MS2EC Module: post force
---------------- Step      167 ----- CPU =  34835.7098 (sec) ----------------
TotEng   =     -3060.5157 KinEng   =      1376.7207 Temp     =       297.2080 
PotEng   =     -4437.2364 E_bond   =       448.1798 E_angle  =         5.7720 
E_dihed  =         2.6295 E_impro  =         0.0000 E_vdwl   =      1003.7992 
E_coul   =     20409.9834 E_long   =    -26307.6003 Press    =     -3866.3613 
MS2EC Module: pre force
MS2EC Module: post force
---------------- Step      168 ----- CPU =  35043.1081 (sec) ----------------
TotEng   =     -3055.8801 KinEng   =      1371.8333 Temp     =       296.1529 
PotEng   =     -4427.7134 E_bond   =       366.3773 E_angle  =         5.6777 
E_dihed  =         2.5266 E_impro  =         0.0000 E_vdwl   =      1002.3100 
E_coul   =     20504.2330 E_long   =    -26308.8380 Press    =     -4662.3794 
MS2EC Module: pre force
MS2EC Module: post force
---------------- Step      169 ----- CPU =  35251.0185 (sec) ----------------
TotEng   =     -3058.0937 KinEng   =      1375.6786 Temp     =       296.9831 
PotEng   =     -4433.7723 E_bond   =       250.2816 E_angle  =         6.5525 
E_dihed  =         2.4156 E_impro  =         0.0000 E_vdwl   =      1000.7200 
E_coul   =     20616.5213 E_long   =    -26310.2632 Press    =      2973.9126 
MS2EC Module: pre force
MS2EC Module: post force
---------------- Step      170 ----- CPU =  35481.8938 (sec) ----------------
TotEng   =     -3050.3526 KinEng   =      1350.0262 Temp     =       291.4452 
PotEng   =     -4400.3788 E_bond   =       201.4592 E_angle  =         8.0847 
E_dihed  =         2.3001 E_impro  =         0.0000 E_vdwl   =       999.2072 
E_coul   =     20699.9361 E_long   =    -26311.3662 Press    =     10612.7925 
MS2EC Module: pre force
MS2EC Module: post force
---------------- Step      171 ----- CPU =  35689.7784 (sec) ----------------
TotEng   =     -3046.1822 KinEng   =      1334.1350 Temp     =       288.0146 
PotEng   =     -4380.3173 E_bond   =       215.2071 E_angle  =         9.9487 
E_dihed  =         2.1778 E_impro  =         0.0000 E_vdwl   =       997.9700 
E_coul   =     20706.1056 E_long   =    -26311.7264 Press    =      9534.0337 
MS2EC Module: pre force
MS2EC Module: post force
---------------- Step      172 ----- CPU =  35897.5816 (sec) ----------------
TotEng   =     -3045.4141 KinEng   =      1339.8985 Temp     =       289.2588 
PotEng   =     -4385.3126 E_bond   =       276.4481 E_angle  =        11.8536 
E_dihed  =         2.0435 E_impro  =         0.0000 E_vdwl   =       997.1455 
E_coul   =     20638.4929 E_long   =    -26311.2963 Press    =      1273.9879 
MS2EC Module: pre force
MS2EC Module: post force
---------------- Step      173 ----- CPU =  36105.3370 (sec) ----------------
TotEng   =     -3037.9333 KinEng   =      1344.8337 Temp     =       290.3242 
PotEng   =     -4382.7671 E_bond   =       365.5498 E_angle  =        13.5602 
E_dihed  =         1.8929 E_impro  =         0.0000 E_vdwl   =       996.7475 
E_coul   =     20549.8330 E_long   =    -26310.3504 Press    =     -4295.8198 
MS2EC Module: pre force
MS2EC Module: post force
---------------- Step      174 ----- CPU =  36313.3977 (sec) ----------------
TotEng   =     -3038.1098 KinEng   =      1366.3305 Temp     =       294.9650 
PotEng   =     -4404.4403 E_bond   =       407.6341 E_angle  =        14.9004 
E_dihed  =         1.7246 E_impro  =         0.0000 E_vdwl   =       996.6816 
E_coul   =     20483.8265 E_long   =    -26309.2075 Press    =     -1038.4158 
MS2EC Module: pre force
MS2EC Module: post force
---------------- Step      175 ----- CPU =  36521.7229 (sec) ----------------
TotEng   =     -3032.4240 KinEng   =      1362.8978 Temp     =       294.2239 
PotEng   =     -4395.3218 E_bond   =       466.8244 E_angle  =        15.7853 
E_dihed  =         1.5422 E_impro  =         0.0000 E_vdwl   =       996.7698 
E_coul   =     20431.7483 E_long   =    -26307.9918 Press    =      5686.0827 
MS2EC Module: pre force
MS2EC Module: post force
---------------- Step      176 ----- CPU =  36730.6022 (sec) ----------------
TotEng   =     -3024.3131 KinEng   =      1341.2932 Temp     =       289.5599 
PotEng   =     -4365.6063 E_bond   =       570.1169 E_angle  =        16.1745 
E_dihed  =         1.3537 E_impro  =         0.0000 E_vdwl   =       996.8412 
E_coul   =     20356.6306 E_long   =    -26306.7232 Press    =      6207.2610 
MS2EC Module: pre force
MS2EC Module: post force
---------------- Step      177 ----- CPU =  36938.6954 (sec) ----------------
TotEng   =     -3023.9391 KinEng   =      1332.4660 Temp     =       287.6543 
PotEng   =     -4356.4050 E_bond   =       679.5830 E_angle  =        16.0170 
E_dihed  =         1.1690 E_impro  =         0.0000 E_vdwl   =       996.8170 
E_coul   =     20255.5991 E_long   =    -26305.5900 Press    =     -1379.7917 
MS2EC Module: pre force
MS2EC Module: post force
---------------- Step      178 ----- CPU =  37146.3036 (sec) ----------------
TotEng   =     -3015.6386 KinEng   =      1310.2294 Temp     =       282.8538 
PotEng   =     -4325.8680 E_bond   =       786.2789 E_angle  =        15.2583 
E_dihed  =         0.9967 E_impro  =         0.0000 E_vdwl   =       996.7620 
E_coul   =     20179.8013 E_long   =    -26304.9652 Press    =     -8960.6066 
MS2EC Module: pre force
MS2EC Module: post force
---------------- Step      179 ----- CPU =  37353.6856 (sec) ----------------
TotEng   =     -3010.7617 KinEng   =      1307.5309 Temp     =       282.2712 
PotEng   =     -4318.2926 E_bond   =       789.0828 E_angle  =        13.9754 
E_dihed  =         0.8438 E_impro  =         0.0000 E_vdwl   =       996.7250 
E_coul   =     20186.1686 E_long   =    -26305.0883 Press    =     -7836.8112 
MS2EC Module: pre force
MS2EC Module: post force
---------------- Step      180 ----- CPU =  37562.0125 (sec) ----------------
TotEng   =     -3008.9246 KinEng   =      1325.6415 Temp     =       286.1810 
PotEng   =     -4334.5660 E_bond   =       687.3708 E_angle  =        12.4596 
E_dihed  =         0.7168 E_impro  =         0.0000 E_vdwl   =       996.5872 
E_coul   =     20274.1121 E_long   =    -26305.8125 Press    =       500.8286 
MS2EC Module: pre force
MS2EC Module: post force
---------------- Step      181 ----- CPU =  37769.6338 (sec) ----------------
TotEng   =     -3001.5627 KinEng   =      1339.9773 Temp     =       289.2758 
PotEng   =     -4341.5400 E_bond   =       570.4086 E_angle  =        11.0823 
E_dihed  =         0.6209 E_impro  =         0.0000 E_vdwl   =       996.0652 
E_coul   =     20387.0549 E_long   =    -26306.7719 Press    =      6228.9991 
MS2EC Module: pre force
MS2EC Module: post force
---------------- Step      182 ----- CPU =  37977.3768 (sec) ----------------
TotEng   =     -3002.7244 KinEng   =      1368.9972 Temp     =       295.5407 
PotEng   =     -4371.7216 E_bond   =       453.9725 E_angle  =        10.1191 
E_dihed  =         0.5586 E_impro  =         0.0000 E_vdwl   =       995.0079 
E_coul   =     20476.3711 E_long   =    -26307.7507 Press    =      3349.5357 
MS2EC Module: pre force
MS2EC Module: post force
---------------- Step      183 ----- CPU =  38185.3586 (sec) ----------------
TotEng   =     -2998.6646 KinEng   =      1371.4590 Temp     =       296.0721 
PotEng   =     -4370.1236 E_bond   =       389.4988 E_angle  =         9.6950 
E_dihed  =         0.5288 E_impro  =         0.0000 E_vdwl   =       993.5200 
E_coul   =     20545.4544 E_long   =    -26308.8206 Press    =     -3369.4890 
MS2EC Module: pre force
MS2EC Module: post force
---------------- Step      184 ----- CPU =  38383.6345 (sec) ----------------
TotEng   =     -2991.2198 KinEng   =      1355.3749 Temp     =       292.5999 
PotEng   =     -4346.5947 E_bond   =       335.7710 E_angle  =         9.8332 
E_dihed  =         0.5275 E_impro  =         0.0000 E_vdwl   =       991.7647 
E_coul   =     20625.6544 E_long   =    -26310.1455 Press    =     -4154.1940 
MS2EC Module: pre force
MS2EC Module: post force
---------------- Step      185 ----- CPU =  38591.7913 (sec) ----------------
TotEng   =     -2991.1855 KinEng   =      1357.7674 Temp     =       293.1164 
PotEng   =     -4348.9530 E_bond   =       243.5101 E_angle  =        10.5342 
E_dihed  =         0.5488 E_impro  =         0.0000 E_vdwl   =       989.8449 
E_coul   =     20718.2627 E_long   =    -26311.6537 Press    =      3340.5010 
MS2EC Module: pre force
MS2EC Module: post force
---------------- Step      186 ----- CPU =  38800.2693 (sec) ----------------
TotEng   =     -2983.1714 KinEng   =      1349.6421 Temp     =       291.3623 
PotEng   =     -4332.8135 E_bond   =       202.6883 E_angle  =        11.8235 
E_dihed  =         0.5862 E_impro  =         0.0000 E_vdwl   =       987.8715 
E_coul   =     20777.1890 E_long   =    -26312.9720 Press    =     10595.3814 
MS2EC Module: pre force
MS2EC Module: post force
---------------- Step      187 ----- CPU =  39013.4506 (sec) ----------------
TotEng   =     -2979.1445 KinEng   =      1350.6385 Temp     =       291.5774 
PotEng   =     -4329.7830 E_bond   =       226.8036 E_angle  =        13.7179 
E_dihed  =         0.6340 E_impro  =         0.0000 E_vdwl   =       985.9749 
E_coul   =     20756.8347 E_long   =    -26313.7482 Press    =      9043.3165 
MS2EC Module: pre force
MS2EC Module: post force
---------------- Step      188 ----- CPU =  39221.2906 (sec) ----------------
TotEng   =     -2976.3939 KinEng   =      1352.9873 Temp     =       292.0844 
PotEng   =     -4329.3811 E_bond   =       318.4821 E_angle  =        16.0900 
E_dihed  =         0.6880 E_impro  =         0.0000 E_vdwl   =       984.2916 
E_coul   =     20665.0057 E_long   =    -26313.9384 Press    =       465.1284 
MS2EC Module: pre force
MS2EC Module: post force
---------------- Step      189 ----- CPU =  39428.4349 (sec) ----------------
TotEng   =     -2966.6723 KinEng   =      1345.1566 Temp     =       290.3939 
PotEng   =     -4311.8288 E_bond   =       440.8441 E_angle  =        18.5308 
E_dihed  =         0.7420 E_impro  =         0.0000 E_vdwl   =       982.8650 
E_coul   =     20558.9334 E_long   =    -26313.7441 Press    =     -5186.1002 
MS2EC Module: pre force
MS2EC Module: post force
---------------- Step      190 ----- CPU =  39636.1092 (sec) ----------------
TotEng   =     -2965.8808 KinEng   =      1361.5122 Temp     =       293.9248 
PotEng   =     -4327.3929 E_bond   =       496.4267 E_angle  =        20.4683 
E_dihed  =         0.7851 E_impro  =         0.0000 E_vdwl   =       981.6527 
E_coul   =     20486.6131 E_long   =    -26313.3388 Press    =     -1933.7165 
MS2EC Module: pre force
MS2EC Module: post force
---------------- Step      191 ----- CPU =  39843.9055 (sec) ----------------
TotEng   =     -2960.7766 KinEng   =      1360.6435 Temp     =       293.7373 
PotEng   =     -4321.4201 E_bond   =       548.0079 E_angle  =        21.4912 
E_dihed  =         0.8055 E_impro  =         0.0000 E_vdwl   =       980.6131 
E_coul   =     20440.3852 E_long   =    -26312.7230 Press    =      4688.5348 
MS2EC Module: pre force
MS2EC Module: post force
---------------- Step      192 ----- CPU =  40051.8890 (sec) ----------------
TotEng   =     -2952.5870 KinEng   =      1339.3122 Temp     =       289.1322 
PotEng   =     -4291.8992 E_bond   =       636.0675 E_angle  =        21.4979 
E_dihed  =         0.7976 E_impro  =         0.0000 E_vdwl   =       979.6215 
E_coul   =     20382.0054 E_long   =    -26311.8891 Press    =      5089.9309 
MS2EC Module: pre force
MS2EC Module: post force
---------------- Step      193 ----- CPU =  40259.2843 (sec) ----------------
TotEng   =     -2950.8177 KinEng   =      1329.2281 Temp     =       286.9553 
PotEng   =     -4280.0458 E_bond   =       726.5566 E_angle  =        20.6338 
E_dihed  =         0.7626 E_impro  =         0.0000 E_vdwl   =       978.4164 
E_coul   =     20304.6356 E_long   =    -26311.0508 Press    =     -2376.2301 
MS2EC Module: pre force
MS2EC Module: post force
---------------- Step      194 ----- CPU =  40466.6511 (sec) ----------------
TotEng   =     -2942.4513 KinEng   =      1317.9014 Temp     =       284.5100 
PotEng   =     -4260.3527 E_bond   =       800.5428 E_angle  =        19.2057 
E_dihed  =         0.7073 E_impro  =         0.0000 E_vdwl   =       976.7827 
E_coul   =     20252.9889 E_long   =    -26310.5801 Press    =     -9472.8612 
MS2EC Module: pre force
MS2EC Module: post force
---------------- Step      195 ----- CPU =  40674.8189 (sec) ----------------
TotEng   =     -2938.9425 KinEng   =      1337.2962 Temp     =       288.6970 
PotEng   =     -4276.2387 E_bond   =       765.0892 E_angle  =        17.6289 
E_dihed  =         0.6406 E_impro  =         0.0000 E_vdwl   =       974.6337 
E_coul   =     20276.4457 E_long   =    -26310.6768 Press    =     -7761.8855 
MS2EC Module: pre force
MS2EC Module: post force
---------------- Step      196 ----- CPU =  40883.2599 (sec) ----------------
TotEng   =     -2937.1010 KinEng   =      1369.4686 Temp     =       295.6424 
PotEng   =     -4306.5695 E_bond   =       646.1561 E_angle  =        16.3609 
E_dihed  =         0.5713 E_impro  =         0.0000 E_vdwl   =       972.0641 
E_coul   =     20369.4483 E_long   =    -26311.1702 Press    =       840.6570 
MS2EC Module: pre force
MS2EC Module: post force
---------------- Step      197 ----- CPU =  41091.7034 (sec) ----------------
TotEng   =     -2928.0327 KinEng   =      1380.9099 Temp     =       298.1124 
PotEng   =     -4308.9426 E_bond   =       541.0762 E_angle  =        15.7885 
E_dihed  =         0.5061 E_impro  =         0.0000 E_vdwl   =       969.2603 
E_coul   =     20476.1541 E_long   =    -26311.7278 Press    =      6415.3140 
MS2EC Module: pre force
MS2EC Module: post force
---------------- Step      198 ----- CPU =  41300.0538 (sec) ----------------
TotEng   =     -2927.0490 KinEng   =      1403.7837 Temp     =       303.0504 
PotEng   =     -4330.8327 E_bond   =       445.5572 E_angle  =        16.0864 
E_dihed  =         0.4489 E_impro  =         0.0000 E_vdwl   =       966.3866 
E_coul   =     20552.8617 E_long   =    -26312.1736 Press    =      3310.0458 
MS2EC Module: pre force
MS2EC Module: post force
---------------- Step      199 ----- CPU =  41506.7138 (sec) ----------------
TotEng   =     -2922.6507 KinEng   =      1413.8284 Temp     =       305.2189 
PotEng   =     -4336.4791 E_bond   =       387.3380 E_angle  =        17.1441 
E_dihed  =         0.4019 E_impro  =         0.0000 E_vdwl   =       963.6086 
E_coul   =     20607.5645 E_long   =    -26312.5362 Press    =     -3369.3061 
MS2EC Module: pre force
MS2EC Module: post force
ERROR: MS2EC was unable to perform the post_force step! (fix_ms2ec.cpp:418)
