
     Program PWSCF v.5.0.2 (svn rev. 9392) starts on 24Feb2015 at 17: 4:50 

     This program is part of the open-source Quantum ESPRESSO suite
     for quantum simulation of materials; please cite
         "P. Giannozzi et al., J. Phys.:Condens. Matter 21 395502 (2009);
          URL http://www.quantum-espresso.org", 
     in publications or presentations arising from this work. More details at
     http://www.quantum-espresso.org/quote.php

     Parallel version (MPI), running on    20 processors
     R & G space division:  proc/nbgrp/npool/nimage =      20

     Current dimensions of program PWSCF are:
     Max number of different atomic species (ntypx) = 10
     Max number of k-points (npk) =  40000
     Max angular momentum in pseudopotentials (lmaxx) =  3
     Waiting for input...
     Reading input from standard input

     gamma-point specific algorithms are used
 XXXXXXXXXX Plain mechanical coupling execution XXXXXXXX

     Subspace diagonalization in iterative solution of the eigenvalue problem:
     a serial algorithm will be used


     Parallelization info
     --------------------
     sticks:   dense  smooth     PW     G-vecs:    dense   smooth      PW
     Min         398     158     38                26705     6726     838
     Max         402     160     40                26712     6780     848
     Sum        7981    3181    793               534137   135043   16879
     Tot        3991    1591    397


     Title: 
     QMMM                                                                       


     bravais-lattice index     =            1
     lattice parameter (alat)  =      20.0000  a.u.
     unit-cell volume          =    8000.0000 (a.u.)^3
     number of atoms/cell      =           12
     number of atomic types    =            2
     number of electrons       =        30.00
     number of Kohn-Sham states=           15
     kinetic-energy cutoff     =      25.0000  Ry
     charge density cutoff     =     250.0000  Ry
     convergence threshold     =      1.0E-06
     mixing beta               =       0.7000
     number of iterations used =            8  plain     mixing
     Exchange-correlation      =  SLA  PW   PBE  PBE ( 1 4 3 4 0)
     EXX-fraction              =        0.00
     nstep                     =          100


     celldm(1)=  20.000000  celldm(2)=   0.000000  celldm(3)=   0.000000
     celldm(4)=   0.000000  celldm(5)=   0.000000  celldm(6)=   0.000000

     crystal axes: (cart. coord. in units of alat)
               a(1) = (   1.000000   0.000000   0.000000 )  
               a(2) = (   0.000000   1.000000   0.000000 )  
               a(3) = (   0.000000   0.000000   1.000000 )  

     reciprocal axes: (cart. coord. in units 2 pi/alat)
               b(1) = (  1.000000  0.000000  0.000000 )  
               b(2) = (  0.000000  1.000000  0.000000 )  
               b(3) = (  0.000000  0.000000  1.000000 )  


     PseudoPot. # 1 for C  read from file:
     pseudo/C.pbe-van_bm.UPF
     MD5 check sum: 1a69bf6b8db32088f5b2163dbdb77a27
     Pseudo is Ultrasoft, Zval =  4.0
     Generated by new atomic code, or converted to UPF format
     Using radial grid of  721 points,  4 beta functions with: 
                l(1) =   0
                l(2) =   0
                l(3) =   1
                l(4) =   1
     Q(r) pseudized with  8 coefficients,  rinner =    0.800   0.800   0.800


     PseudoPot. # 2 for H  read from file:
     pseudo/H.pbe-van_ak.UPF
     MD5 check sum: 077eb6d537518a38cb46c6de387227b7
     Pseudo is Ultrasoft, Zval =  1.0
     Generated by new atomic code, or converted to UPF format
     Using radial grid of  615 points,  1 beta functions with: 
                l(1) =   0
     Q(r) pseudized with  8 coefficients,  rinner =    0.800

     atomic species   valence    mass     pseudopotential
        C              4.00    12.01000     C ( 1.00)
        H              1.00     1.00800     H ( 1.00)

     No symmetry found



   Cartesian axes

     site n.     atom                  positions (alat units)
         1           C   tau(   1) = (   0.6210464   0.5201594   0.4513010  )
         2           H   tau(   2) = (   0.7155611   0.5356080   0.4141867  )
         3           C   tau(   3) = (   0.5576839   0.6196441   0.5052149  )
         4           H   tau(   4) = (   0.5956012   0.7148674   0.4985630  )
         5           C   tau(   5) = (   0.4366847   0.6007752   0.5546501  )
         6           H   tau(   6) = (   0.3821661   0.6787264   0.5933800  )
         7           C   tau(   7) = (   0.3800685   0.4796910   0.5559540  )
         8           H   tau(   8) = (   0.2908262   0.4574678   0.6016759  )
         9           C   tau(   9) = (   0.4451885   0.3801969   0.4966544  )
        10           H   tau(  10) = (   0.4014130   0.2873357   0.4936308  )
        11           C   tau(  11) = (   0.5622098   0.4017775   0.4398965  )
        12           H   tau(  12) = (   0.6115505   0.3237508   0.3948926  )

     number of k points=     1
                       cart. coord. in units 2pi/alat
        k(    1) = (   0.0000000   0.0000000   0.0000000), wk =   2.0000000

     Dense  grid:   267069 G-vectors     FFT dimensions: ( 108, 108, 108)

     Smooth grid:    67522 G-vectors     FFT dimensions: (  64,  64,  64)

     Largest allocated arrays     est. size (Mb)     dimensions
        Kohn-Sham Wavefunctions         0.10 Mb     (    422,   15)
        NL pseudopotentials             0.35 Mb     (    422,   54)
        Each V/rho on FFT grid          1.07 Mb     (  69984)
        Each G-vector array             0.10 Mb     (  13353)
        G-vector shells                 0.01 Mb     (   1751)
     Largest temporary arrays     est. size (Mb)     dimensions
        Auxiliary wavefunctions         0.19 Mb     (    422,   60)
        Each subspace H/S matrix        0.03 Mb     (  60,  60)
        Each <psi_i|beta_j> matrix      0.01 Mb     (     54,   15)
        Arrays for rho mixing           8.54 Mb     (  69984,   8)

     Initial potential from superposition of free atoms
     Check: negative starting charge=   -0.001499

     starting charge   29.99970, renormalised to   30.00000

     negative rho (up, down):  0.150E-02 0.000E+00
     Starting wfc are   30 randomized atomic wfcs

     total cpu time spent up to now is        0.9 secs

     per-process dynamical memory:    19.8 Mb

     Self-consistent Calculation

     iteration #  1     ecut=    25.00 Ry     beta=0.70
     Davidson diagonalization with overlap
     ethr =  1.00E-02,  avg # of iterations =  2.0

     negative rho (up, down):  0.698E-02 0.000E+00

     total cpu time spent up to now is        1.6 secs

     total energy              =     -74.95268498 Ry
     Harris-Foulkes estimate   =     -75.92609389 Ry
     estimated scf accuracy    <       1.47117628 Ry

     iteration #  2     ecut=    25.00 Ry     beta=0.70
     Davidson diagonalization with overlap
     ethr =  4.90E-03,  avg # of iterations =  2.0

     negative rho (up, down):  0.797E-02 0.000E+00

     total cpu time spent up to now is        2.2 secs

     total energy              =     -75.23335922 Ry
     Harris-Foulkes estimate   =     -75.48720545 Ry
     estimated scf accuracy    <       0.43435222 Ry

     iteration #  3     ecut=    25.00 Ry     beta=0.70
     Davidson diagonalization with overlap
     ethr =  1.45E-03,  avg # of iterations =  2.0

     negative rho (up, down):  0.891E-02 0.000E+00

     total cpu time spent up to now is        2.8 secs

     total energy              =     -75.34320213 Ry
     Harris-Foulkes estimate   =     -75.35493991 Ry
     estimated scf accuracy    <       0.02185908 Ry

     iteration #  4     ecut=    25.00 Ry     beta=0.70
     Davidson diagonalization with overlap
     ethr =  7.29E-05,  avg # of iterations =  2.0

     negative rho (up, down):  0.921E-02 0.000E+00

     total cpu time spent up to now is        3.4 secs

     total energy              =     -75.34782902 Ry
     Harris-Foulkes estimate   =     -75.34786998 Ry
     estimated scf accuracy    <       0.00018750 Ry

     iteration #  5     ecut=    25.00 Ry     beta=0.70
     Davidson diagonalization with overlap
     ethr =  6.25E-07,  avg # of iterations =  2.0

     negative rho (up, down):  0.926E-02 0.000E+00

     total cpu time spent up to now is        4.0 secs

     total energy              =     -75.34788470 Ry
     Harris-Foulkes estimate   =     -75.34789598 Ry
     estimated scf accuracy    <       0.00002737 Ry

     iteration #  6     ecut=    25.00 Ry     beta=0.70
     Davidson diagonalization with overlap
     ethr =  9.12E-08,  avg # of iterations =  2.0

     negative rho (up, down):  0.927E-02 0.000E+00

     total cpu time spent up to now is        4.7 secs

     total energy              =     -75.34788775 Ry
     Harris-Foulkes estimate   =     -75.34788942 Ry
     estimated scf accuracy    <       0.00000325 Ry

     iteration #  7     ecut=    25.00 Ry     beta=0.70
     Davidson diagonalization with overlap
     ethr =  1.08E-08,  avg # of iterations =  3.0

     negative rho (up, down):  0.927E-02 0.000E+00

     total cpu time spent up to now is        5.1 secs

     End of self-consistent calculation

          k = 0.0000 0.0000 0.0000 (  8440 PWs)   bands (ev):

   -20.6642 -17.9712 -17.7929 -14.3405 -14.1954 -12.3178 -10.6643 -10.3283
    -9.7311  -9.5704  -8.5281  -7.7134  -7.5857  -5.8344  -5.7108

!    total energy              =     -75.34788848 Ry
     Harris-Foulkes estimate   =     -75.34788863 Ry
     estimated scf accuracy    <       0.00000020 Ry

     convergence has been achieved in   7 iterations

     Forces acting on atoms (Ry/au):

     atom    1 type  1   force =     0.01181357   -0.03277984   -0.02406100
     atom    2 type  2   force =     0.00785309   -0.00302424   -0.00805223
     atom    3 type  1   force =    -0.03573350    0.02370037    0.00338649
     atom    4 type  2   force =     0.00790393    0.00733200    0.01036646
     atom    5 type  1   force =    -0.03203513   -0.02076212    0.01458160
     atom    6 type  2   force =     0.00147350    0.01179765    0.00548720
     atom    7 type  1   force =     0.04167534    0.00318081   -0.01528816
     atom    8 type  2   force =    -0.01015808    0.01332276    0.00264904
     atom    9 type  1   force =    -0.01077741    0.01428157    0.00018988
     atom   10 type  2   force =    -0.00029832   -0.01030283   -0.00229339
     atom   11 type  1   force =     0.01312889   -0.00146913    0.01919237
     atom   12 type  2   force =     0.00509085   -0.00529423   -0.00616200

     Total force =     0.095805     Total SCF correction =     0.000671

     Molecular Dynamics Calculation
     mass C                =    12.01
     mass H                =     1.01
     Time step             =    20.00 a.u.,  0.9676 femto-seconds

     Entering Dynamics:    iteration =     1
                           time      =   0.0010 pico-seconds


ATOMIC_POSITIONS (angstrom)
C        6.572986399   5.504813514   4.776131125
H        7.574076831   5.668282062   4.382636167
C        5.901926691   6.558259591   5.346996500
H        6.304482687   7.566675068   5.277757941
C        4.621362449   6.358129707   5.870304740
H        4.044841922   7.184689496   6.280695866
C        4.022875117   5.076861198   5.883815945
H        3.076802001   4.843165185   6.368168919
C        4.711567979   4.023968526   5.256365594
H        4.248337815   3.039843592   5.224099567
C        5.950299116   4.252216241   4.655849319
H        6.472958630   3.425820566   4.178653915


     kinetic energy (Ekin) =     0.00000000 Ry
     temperature           =     0.00000000 K 
     Ekin + Etot (const)   =   -75.34788848 Ry

     Linear momentum :    0.0000000000    0.0000000000    0.0000000000
     Check: negative starting charge=   -0.001499
     NEW-OLD atomic charge density approx. for the potential
     Check: negative starting charge=   -0.001499

     negative rho (up, down):  0.926E-02 0.000E+00

     total cpu time spent up to now is        6.5 secs

     per-process dynamical memory:    19.1 Mb

     Self-consistent Calculation

     iteration #  1     ecut=    25.00 Ry     beta=0.70
     Davidson diagonalization with overlap
     ethr =  1.00E-06,  avg # of iterations =  2.0

     Threshold (ethr) on eigenvalues was too large:
     Diagonalizing with lowered threshold

     Davidson diagonalization with overlap
     ethr =  1.65E-08,  avg # of iterations =  2.0

     negative rho (up, down):  0.926E-02 0.000E+00

     total cpu time spent up to now is        7.3 secs

     total energy              =     -75.34825981 Ry
     Harris-Foulkes estimate   =     -75.34826220 Ry
     estimated scf accuracy    <       0.00000517 Ry

     iteration #  2     ecut=    25.00 Ry     beta=0.70
     Davidson diagonalization with overlap
     ethr =  1.72E-08,  avg # of iterations =  3.0

     negative rho (up, down):  0.927E-02 0.000E+00

     total cpu time spent up to now is        7.9 secs

     total energy              =     -75.34826032 Ry
     Harris-Foulkes estimate   =     -75.34826119 Ry
     estimated scf accuracy    <       0.00000143 Ry

     iteration #  3     ecut=    25.00 Ry     beta=0.70
     Davidson diagonalization with overlap
     ethr =  4.77E-09,  avg # of iterations =  4.0

     negative rho (up, down):  0.927E-02 0.000E+00

     total cpu time spent up to now is        8.4 secs

     End of self-consistent calculation

          k = 0.0000 0.0000 0.0000 (  8440 PWs)   bands (ev):

   -20.6650 -17.9682 -17.7935 -14.3352 -14.1946 -12.3139 -10.6566 -10.3292
    -9.7283  -9.5689  -8.5286  -7.7119  -7.5857  -5.8338  -5.7131

!    total energy              =     -75.34826049 Ry
     Harris-Foulkes estimate   =     -75.34826096 Ry
     estimated scf accuracy    <       0.00000055 Ry

     convergence has been achieved in   3 iterations

     Forces acting on atoms (Ry/au):

     atom    1 type  1   force =     0.01155244   -0.03139124   -0.02361831
     atom    2 type  2   force =     0.00750782   -0.00304875   -0.00785028
     atom    3 type  1   force =    -0.03444300    0.02369535    0.00298388
     atom    4 type  2   force =     0.00730437    0.00611156    0.01030352
     atom    5 type  1   force =    -0.03170715   -0.01860817    0.01486720
     atom    6 type  2   force =     0.00206371    0.01038619    0.00493698
     atom    7 type  1   force =     0.03889566    0.00288245   -0.01405313
     atom    8 type  2   force =    -0.00849815    0.01332423    0.00179587
     atom    9 type  1   force =    -0.01102261    0.01221466   -0.00007022
     atom   10 type  2   force =     0.00026316   -0.00870228   -0.00217881
     atom   11 type  1   force =     0.01383737   -0.00288504    0.01821760
     atom   12 type  2   force =     0.00423413   -0.00400241   -0.00534109

     Total force =     0.091563     Total SCF correction =     0.001359

     Entering Dynamics:    iteration =     2
                           time      =   0.0019 pico-seconds


ATOMIC_POSITIONS (angstrom)
C        6.573240407   5.503812474   4.775293809
H        7.575145068   5.667443651   4.380230199
C        5.900849786   6.558804524   5.347044058
H        6.307122054   7.568771897   5.281742275
C        4.620382233   6.357430230   5.870670422
H        4.045529520   7.188563431   6.282694257
C        4.024067252   5.076844850   5.883300886
H        3.073214535   4.847868208   6.368792041
C        4.711211832   4.024268923   5.256284684
H        4.248560860   3.036063696   5.223417448
C        5.950668827   4.252048526   4.656328446
H        6.474668160   3.423632848   4.176591040


     kinetic energy (Ekin) =     0.00036619 Ry
     temperature           =     3.50406590 K 
     Ekin + Etot (const)   =   -75.34789430 Ry
     Message from routine dynamics:
     Total linear momentum <> 0

     Linear momentum :   -0.0095004814   -0.0184782790   -0.0108292806
     Check: negative starting charge=   -0.001499
     NEW-OLD atomic charge density approx. for the potential
     Check: negative starting charge=   -0.001498

     negative rho (up, down):  0.923E-02 0.000E+00

     total cpu time spent up to now is        9.5 secs

     per-process dynamical memory:    19.1 Mb

     Self-consistent Calculation

     iteration #  1     ecut=    25.00 Ry     beta=0.70
     Davidson diagonalization with overlap
     ethr =  1.00E-06,  avg # of iterations =  3.0

     negative rho (up, down):  0.924E-02 0.000E+00

     total cpu time spent up to now is       10.1 secs

     total energy              =     -75.34917627 Ry
     Harris-Foulkes estimate   =     -75.34919284 Ry
     estimated scf accuracy    <       0.00003726 Ry

     iteration #  2     ecut=    25.00 Ry     beta=0.70
     Davidson diagonalization with overlap
     ethr =  1.24E-07,  avg # of iterations =  2.0

     negative rho (up, down):  0.925E-02 0.000E+00

     total cpu time spent up to now is       10.8 secs

     total energy              =     -75.34918249 Ry
     Harris-Foulkes estimate   =     -75.34918552 Ry
     estimated scf accuracy    <       0.00000537 Ry

     iteration #  3     ecut=    25.00 Ry     beta=0.70
     Davidson diagonalization with overlap
     ethr =  1.79E-08,  avg # of iterations =  4.0

     negative rho (up, down):  0.925E-02 0.000E+00

     total cpu time spent up to now is       11.4 secs

     total energy              =     -75.34918379 Ry
     Harris-Foulkes estimate   =     -75.34918455 Ry
     estimated scf accuracy    <       0.00000156 Ry

     iteration #  4     ecut=    25.00 Ry     beta=0.70
     Davidson diagonalization with overlap
     ethr =  5.19E-09,  avg # of iterations =  3.0

     negative rho (up, down):  0.925E-02 0.000E+00

     total cpu time spent up to now is       11.9 secs

     End of self-consistent calculation

          k = 0.0000 0.0000 0.0000 (  8440 PWs)   bands (ev):

   -20.6671 -17.9600 -17.7953 -14.3202 -14.1922 -12.3026 -10.6345 -10.3312
    -9.7199  -9.5642  -8.5298  -7.7067  -7.5858  -5.8323  -5.7195

!    total energy              =     -75.34918403 Ry
     Harris-Foulkes estimate   =     -75.34918428 Ry
     estimated scf accuracy    <       0.00000029 Ry

     convergence has been achieved in   4 iterations

     Forces acting on atoms (Ry/au):

     atom    1 type  1   force =     0.01072456   -0.02738514   -0.02226799
     atom    2 type  2   force =     0.00682493   -0.00307496   -0.00738301
     atom    3 type  1   force =    -0.03107203    0.02348062    0.00196410
     atom    4 type  2   force =     0.00568406    0.00302629    0.01008979
     atom    5 type  1   force =    -0.03055939   -0.01274396    0.01553614
     atom    6 type  2   force =     0.00356112    0.00646356    0.00345660
     atom    7 type  1   force =     0.03139552    0.00208101   -0.01080280
     atom    8 type  2   force =    -0.00401344    0.01319042   -0.00050635
     atom    9 type  1   force =    -0.01146420    0.00670487   -0.00082986
     atom   10 type  2   force =     0.00179851   -0.00418904   -0.00183664
     atom   11 type  1   force =     0.01519236   -0.00682609    0.01578833
     atom   12 type  2   force =     0.00194864   -0.00073828   -0.00318952

     Total force =     0.081110     Total SCF correction =     0.000969

     Entering Dynamics:    iteration =     3
                           time      =   0.0029 pico-seconds


ATOMIC_POSITIONS (angstrom)
C        6.573527979   5.502110659   4.773779575
H        7.575375173   5.666156369   4.376612416
C        5.899029959   6.559530646   5.347037963
H        6.311071871   7.571236503   5.288628910
C        4.618678548   6.356221972   5.871217348
H        4.047075216   7.194004781   6.285788374
C        4.025867751   5.076654159   5.882411045
H        3.068017809   4.855696261   6.369100468
C        4.710527991   4.024523140   5.256039100
H        4.249463340   3.030427045   5.222416740
C        5.951249525   4.251538733   4.656996450
H        6.476975022   3.420272054   4.173611278


     kinetic energy (Ekin) =     0.00133600 Ry
     temperature           =    12.78404912 K 
     Ekin + Etot (const)   =   -75.34784804 Ry
     Message from routine dynamics:
     Total linear momentum <> 0

     Linear momentum :   -0.0316708219   -0.0561841745   -0.0314158434
     Check: negative starting charge=   -0.001498
     NEW-OLD atomic charge density approx. for the potential
     Check: negative starting charge=   -0.001496

     negative rho (up, down):  0.921E-02 0.000E+00

     total cpu time spent up to now is       13.0 secs

     per-process dynamical memory:    19.1 Mb

     Self-consistent Calculation

     iteration #  1     ecut=    25.00 Ry     beta=0.70
     Davidson diagonalization with overlap
     ethr =  1.00E-06,  avg # of iterations =  3.0

     negative rho (up, down):  0.921E-02 0.000E+00

     total cpu time spent up to now is       13.6 secs

     total energy              =     -75.35025143 Ry
     Harris-Foulkes estimate   =     -75.35028638 Ry
     estimated scf accuracy    <       0.00007770 Ry

     iteration #  2     ecut=    25.00 Ry     beta=0.70
     Davidson diagonalization with overlap
     ethr =  2.59E-07,  avg # of iterations =  3.0

     negative rho (up, down):  0.922E-02 0.000E+00

     total cpu time spent up to now is       14.3 secs

     total energy              =     -75.35026277 Ry
     Harris-Foulkes estimate   =     -75.35027546 Ry
     estimated scf accuracy    <       0.00002201 Ry

     iteration #  3     ecut=    25.00 Ry     beta=0.70
     Davidson diagonalization with overlap
     ethr =  7.34E-08,  avg # of iterations =  4.0

     negative rho (up, down):  0.923E-02 0.000E+00

     total cpu time spent up to now is       14.9 secs

     total energy              =     -75.35026857 Ry
     Harris-Foulkes estimate   =     -75.35027097 Ry
     estimated scf accuracy    <       0.00000520 Ry

     iteration #  4     ecut=    25.00 Ry     beta=0.70
     Davidson diagonalization with overlap
     ethr =  1.73E-08,  avg # of iterations =  3.0

     negative rho (up, down):  0.923E-02 0.000E+00

     total cpu time spent up to now is       15.4 secs

     End of self-consistent calculation

          k = 0.0000 0.0000 0.0000 (  8440 PWs)   bands (ev):

   -20.6682 -17.9467 -17.7984 -14.2988 -14.1904 -12.2874 -10.6058 -10.3333
    -9.7072  -9.5586  -8.5300  -7.6990  -7.5863  -5.8282  -5.7283

!    total energy              =     -75.35026947 Ry
     Harris-Foulkes estimate   =     -75.35026996 Ry
     estimated scf accuracy    <       0.00000061 Ry

     convergence has been achieved in   4 iterations

     Forces acting on atoms (Ry/au):

     atom    1 type  1   force =     0.00916006   -0.02125110   -0.02007654
     atom    2 type  2   force =     0.00591933   -0.00307671   -0.00670879
     atom    3 type  1   force =    -0.02612615    0.02221016    0.00047766
     atom    4 type  2   force =     0.00349603   -0.00089965    0.00963170
     atom    5 type  1   force =    -0.02798072   -0.00460215    0.01605761
     atom    6 type  2   force =     0.00518151    0.00132551    0.00162192
     atom    7 type  1   force =     0.02096654    0.00125764   -0.00644017
     atom    8 type  2   force =     0.00163577    0.01255482   -0.00338307
     atom    9 type  1   force =    -0.01145448   -0.00050697   -0.00197186
     atom   10 type  2   force =     0.00350438    0.00146136   -0.00135049
     atom   11 type  1   force =     0.01664688   -0.01178294    0.01257467
     atom   12 type  2   force =    -0.00092402    0.00330749   -0.00043524

     Total force =     0.069248     Total SCF correction =     0.001407

     Entering Dynamics:    iteration =     4
                           time      =   0.0039 pico-seconds


ATOMIC_POSITIONS (angstrom)
C        6.573775028   5.499808234   4.771696159
H        7.575236892   5.664248920   4.371807507
C        5.896519652   6.560418375   5.346955150
H        6.315675418   7.573104143   5.298042144
C        4.616249547   6.354677761   5.871976000
H        4.049792101   7.199599799   6.289391622
C        4.027958107   5.076256504   5.881272787
H        3.062773736   4.866377646   6.368406806
C        4.709452681   4.024550387   5.255633183
H        4.251296519   3.024579417   5.221167201
C        5.952001136   4.250564416   4.657802967
H        6.479004270   3.417012916   4.170457735


     kinetic energy (Ekin) =     0.00252274 Ry
     temperature           =    24.13987607 K 
     Ekin + Etot (const)   =   -75.34774674 Ry
     Message from routine dynamics:
     Total linear momentum <> 0

     Linear momentum :   -0.0630596988   -0.0958068497   -0.0487100283
     Check: negative starting charge=   -0.001496
     NEW-OLD atomic charge density approx. for the potential
     Check: negative starting charge=   -0.001495

     negative rho (up, down):  0.919E-02 0.000E+00

     total cpu time spent up to now is       16.5 secs

     per-process dynamical memory:    19.1 Mb

     Self-consistent Calculation

     iteration #  1     ecut=    25.00 Ry     beta=0.70
     Davidson diagonalization with overlap
     ethr =  1.00E-06,  avg # of iterations =  4.0

     negative rho (up, down):  0.919E-02 0.000E+00

     total cpu time spent up to now is       17.1 secs

     total energy              =     -75.35124125 Ry
     Harris-Foulkes estimate   =     -75.35128719 Ry
     estimated scf accuracy    <       0.00010170 Ry

     iteration #  2     ecut=    25.00 Ry     beta=0.70
     Davidson diagonalization with overlap
     ethr =  3.39E-07,  avg # of iterations =  4.0

     negative rho (up, down):  0.920E-02 0.000E+00

     total cpu time spent up to now is       17.7 secs

     total energy              =     -75.35124993 Ry
     Harris-Foulkes estimate   =     -75.35128002 Ry
     estimated scf accuracy    <       0.00005440 Ry

     iteration #  3     ecut=    25.00 Ry     beta=0.70
     Davidson diagonalization with overlap
     ethr =  1.81E-07,  avg # of iterations =  3.0

     negative rho (up, down):  0.920E-02 0.000E+00

     total cpu time spent up to now is       18.3 secs

     total energy              =     -75.35126458 Ry
     Harris-Foulkes estimate   =     -75.35126914 Ry
     estimated scf accuracy    <       0.00001066 Ry

     iteration #  4     ecut=    25.00 Ry     beta=0.70
     Davidson diagonalization with overlap
     ethr =  3.55E-08,  avg # of iterations =  4.0

     negative rho (up, down):  0.920E-02 0.000E+00

     total cpu time spent up to now is       18.7 secs

     End of self-consistent calculation

          k = 0.0000 0.0000 0.0000 (  8440 PWs)   bands (ev):

   -20.6684 -17.9313 -17.8048 -14.2764 -14.1925 -12.2738 -10.5798 -10.3359
    -9.6940  -9.5561  -8.5294  -7.6916  -7.5889  -5.8223  -5.7391

!    total energy              =     -75.35126653 Ry
     Harris-Foulkes estimate   =     -75.35126704 Ry
     estimated scf accuracy    <       0.00000070 Ry

     convergence has been achieved in   4 iterations

     Forces acting on atoms (Ry/au):

     atom    1 type  1   force =     0.00670060   -0.01368400   -0.01713835
     atom    2 type  2   force =     0.00512066   -0.00300131   -0.00597489
     atom    3 type  1   force =    -0.02044452    0.01909534   -0.00119099
     atom    4 type  2   force =     0.00129179   -0.00437312    0.00886195
     atom    5 type  1   force =    -0.02339675    0.00395531    0.01585936
     atom    6 type  2   force =     0.00607761   -0.00360406    0.00007265
     atom    7 type  1   force =     0.00996641    0.00084051   -0.00215243
     atom    8 type  2   force =     0.00663580    0.01106707   -0.00588787
     atom    9 type  1   force =    -0.01024604   -0.00729793   -0.00332596
     atom   10 type  2   force =     0.00461496    0.00650343   -0.00080232
     atom   11 type  1   force =     0.01715249   -0.01619123    0.00959057
     atom   12 type  2   force =    -0.00345436    0.00670730    0.00207310

     Total force =     0.059947     Total SCF correction =     0.001461

     Entering Dynamics:    iteration =     5
                           time      =   0.0048 pico-seconds


ATOMIC_POSITIONS (angstrom)
C        6.573873483   5.497063432   4.769129737
H        7.574470245   5.661741264   4.366070290
C        5.893380752   6.561405466   5.346782943
H        6.320317961   7.573508394   5.309757382
C        4.613132679   6.352976653   5.872966783
H        4.053866498   7.204110749   6.293134360
C        4.030052421   5.075642834   5.879999630
H        3.058684168   4.879543262   6.366102641
C        4.707953994   4.024207570   5.255062161
H        4.254286690   3.019788234   5.219833951
C        5.952878661   4.249031825   4.658708638
H        6.480066278   3.414713093   4.167794077


     kinetic energy (Ekin) =     0.00365280 Ry
     temperature           =    34.95334622 K 
     Ekin + Etot (const)   =   -75.34761374 Ry
     Message from routine dynamics:
     Total linear momentum <> 0

     Linear momentum :   -0.1039468593   -0.1353881625   -0.0620403002
     Check: negative starting charge=   -0.001495
     NEW-OLD atomic charge density approx. for the potential
     Check: negative starting charge=   -0.001494

     negative rho (up, down):  0.918E-02 0.000E+00

     total cpu time spent up to now is       19.9 secs

     per-process dynamical memory:    19.1 Mb

     Self-consistent Calculation

     iteration #  1     ecut=    25.00 Ry     beta=0.70
     Davidson diagonalization with overlap
     ethr =  1.00E-06,  avg # of iterations =  4.0

     negative rho (up, down):  0.918E-02 0.000E+00

     total cpu time spent up to now is       20.5 secs

     total energy              =     -75.35213341 Ry
     Harris-Foulkes estimate   =     -75.35217288 Ry
     estimated scf accuracy    <       0.00009888 Ry

     iteration #  2     ecut=    25.00 Ry     beta=0.70
     Davidson diagonalization with overlap
     ethr =  3.30E-07,  avg # of iterations =  3.0

     negative rho (up, down):  0.919E-02 0.000E+00

     total cpu time spent up to now is       21.2 secs

     total energy              =     -75.35214039 Ry
     Harris-Foulkes estimate   =     -75.35216944 Ry
     estimated scf accuracy    <       0.00005301 Ry

     iteration #  3     ecut=    25.00 Ry     beta=0.70
     Davidson diagonalization with overlap
     ethr =  1.77E-07,  avg # of iterations =  4.0

     negative rho (up, down):  0.919E-02 0.000E+00

     total cpu time spent up to now is       21.8 secs

     total energy              =     -75.35215480 Ry
     Harris-Foulkes estimate   =     -75.35215940 Ry
     estimated scf accuracy    <       0.00001116 Ry

     iteration #  4     ecut=    25.00 Ry     beta=0.70
     Davidson diagonalization with overlap
     ethr =  3.72E-08,  avg # of iterations =  3.0

     negative rho (up, down):  0.919E-02 0.000E+00

     total cpu time spent up to now is       22.3 secs

     End of self-consistent calculation

          k = 0.0000 0.0000 0.0000 (  8440 PWs)   bands (ev):

   -20.6667 -17.9159 -17.8140 -14.2570 -14.2005 -12.2659 -10.5645 -10.3379
    -9.6832  -9.5588  -8.5270  -7.6870  -7.5938  -5.8153  -5.7495

!    total energy              =     -75.35215680 Ry
     Harris-Foulkes estimate   =     -75.35215730 Ry
     estimated scf accuracy    <       0.00000067 Ry

     convergence has been achieved in   4 iterations

     Forces acting on atoms (Ry/au):

     atom    1 type  1   force =     0.00324890   -0.00531065   -0.01354729
     atom    2 type  2   force =     0.00469303   -0.00277519   -0.00529522
     atom    3 type  1   force =    -0.01468723    0.01372614   -0.00283059
     atom    4 type  2   force =    -0.00050816   -0.00655077    0.00775717
     atom    5 type  1   force =    -0.01642771    0.01131648    0.01442606
     atom    6 type  2   force =     0.00559033   -0.00701427   -0.00063923
     atom    7 type  1   force =     0.00031627    0.00107214    0.00115159
     atom    8 type  2   force =     0.00949998    0.00855669   -0.00726357
     atom    9 type  1   force =    -0.00737817   -0.01200024   -0.00472139
     atom   10 type  2   force =     0.00454764    0.00946037   -0.00028459
     atom   11 type  1   force =     0.01606433   -0.01878336    0.00754312
     atom   12 type  2   force =    -0.00488969    0.00835377    0.00364930

     Total force =     0.052981     Total SCF correction =     0.001486

     Entering Dynamics:    iteration =     6
                           time      =   0.0058 pico-seconds


ATOMIC_POSITIONS (angstrom)
C        6.573722994   5.494076840   4.766176468
H        7.572945244   5.658712918   4.359650282
C        5.889704795   6.562408372   5.346504970
H        6.324512748   7.571937107   5.323449940
C        4.609443245   6.351298443   5.874180355
H        4.059168221   7.206701695   6.296850563
C        4.031921528   5.074843472   5.878680267
H        3.056448620   4.894595210   6.361854631
C        4.706063080   4.023420948   5.254316183
H        4.258395948   3.016829548   5.218571088
C        5.953831887   4.246910640   4.659689594
H        6.479771739   3.413819610   4.166049042


     kinetic energy (Ekin) =     0.00467540 Ry
     temperature           =    44.73860204 K 
     Ekin + Etot (const)   =   -75.34748140 Ry
     Message from routine dynamics:
     Total linear momentum <> 0

     Linear momentum :   -0.1495290124   -0.1705971120   -0.0721095498
     Check: negative starting charge=   -0.001494
     NEW-OLD atomic charge density approx. for the potential
     Check: negative starting charge=   -0.001496

     negative rho (up, down):  0.919E-02 0.000E+00

     total cpu time spent up to now is       23.4 secs

     per-process dynamical memory:    19.1 Mb

     Self-consistent Calculation

     iteration #  1     ecut=    25.00 Ry     beta=0.70
     Davidson diagonalization with overlap
     ethr =  1.00E-06,  avg # of iterations =  4.0

     negative rho (up, down):  0.919E-02 0.000E+00

     total cpu time spent up to now is       24.1 secs

     total energy              =     -75.35294013 Ry
     Harris-Foulkes estimate   =     -75.35298634 Ry
     estimated scf accuracy    <       0.00011603 Ry

     iteration #  2     ecut=    25.00 Ry     beta=0.70
     Davidson diagonalization with overlap
     ethr =  3.87E-07,  avg # of iterations =  4.0

     negative rho (up, down):  0.919E-02 0.000E+00

     total cpu time spent up to now is       24.7 secs

     total energy              =     -75.35294591 Ry
     Harris-Foulkes estimate   =     -75.35298753 Ry
     estimated scf accuracy    <       0.00007822 Ry

     iteration #  3     ecut=    25.00 Ry     beta=0.70
     Davidson diagonalization with overlap
     ethr =  2.61E-07,  avg # of iterations =  3.0

     negative rho (up, down):  0.919E-02 0.000E+00

     total cpu time spent up to now is       25.3 secs

     total energy              =     -75.35296703 Ry
     Harris-Foulkes estimate   =     -75.35297192 Ry
     estimated scf accuracy    <       0.00001260 Ry

     iteration #  4     ecut=    25.00 Ry     beta=0.70
     Davidson diagonalization with overlap
     ethr =  4.20E-08,  avg # of iterations =  4.0

     negative rho (up, down):  0.919E-02 0.000E+00

     total cpu time spent up to now is       25.8 secs

     End of self-consistent calculation

          k = 0.0000 0.0000 0.0000 (  8440 PWs)   bands (ev):

   -20.6625 -17.9022 -17.8257 -14.2440 -14.2144 -12.2660 -10.5653 -10.3379
    -9.6762  -9.5682  -8.5226  -7.6872  -7.6002  -5.8079  -5.7579

!    total energy              =     -75.35296931 Ry
     Harris-Foulkes estimate   =     -75.35296968 Ry
     estimated scf accuracy    <       0.00000053 Ry

     convergence has been achieved in   4 iterations

     Forces acting on atoms (Ry/au):

     atom    1 type  1   force =    -0.00102369    0.00302449   -0.00955362
     atom    2 type  2   force =     0.00471779   -0.00238677   -0.00473127
     atom    3 type  1   force =    -0.00947712    0.00618627   -0.00425281
     atom    4 type  2   force =    -0.00156360   -0.00682593    0.00636490
     atom    5 type  1   force =    -0.00737993    0.01638675    0.01166795
     atom    6 type  2   force =     0.00355120   -0.00824994   -0.00028346
     atom    7 type  1   force =    -0.00667705    0.00192822    0.00286127
     atom    8 type  2   force =     0.00942790    0.00508981   -0.00711788
     atom    9 type  1   force =    -0.00293862   -0.01363082   -0.00590298
     atom   10 type  2   force =     0.00308203    0.00959478    0.00014383
     atom   11 type  1   force =     0.01314148   -0.01878003    0.00685148
     atom   12 type  2   force =    -0.00483383    0.00768738    0.00391166

     Total force =     0.046371     Total SCF correction =     0.001317

     Entering Dynamics:    iteration =     7
                           time      =   0.0068 pico-seconds


ATOMIC_POSITIONS (angstrom)
C        6.573258914   5.491084380   4.762930425
H        7.570711210   5.655321155   4.352765154
C        5.885624885   6.563333837   5.346097339
H        6.328008821   7.568387844   5.338701970
C        4.605393329   6.349810864   5.875567478
H        4.065230278   7.207118550   6.300627523
C        4.033444747   5.073937854   5.877358123
H        3.056085038   4.910729100   6.355699788
C        4.703897247   4.022216907   5.253377704
H        4.263288470   3.015808477   5.217498523
C        5.954824994   4.244260493   4.660738323
H        6.478156722   3.414237685   4.165312820


     kinetic energy (Ekin) =     0.00558670 Ry
     temperature           =    53.45873655 K 
     Ekin + Etot (const)   =   -75.34738261 Ry
     Message from routine dynamics:
     Total linear momentum <> 0

     Linear momentum :   -0.1909333555   -0.1954404170   -0.0808709747
     Check: negative starting charge=   -0.001496
     NEW-OLD atomic charge density approx. for the potential
     Check: negative starting charge=   -0.001498

     negative rho (up, down):  0.921E-02 0.000E+00

     total cpu time spent up to now is       26.9 secs

     per-process dynamical memory:    19.1 Mb

     Self-consistent Calculation

     iteration #  1     ecut=    25.00 Ry     beta=0.70
     Davidson diagonalization with overlap
     ethr =  1.00E-06,  avg # of iterations =  4.0

     negative rho (up, down):  0.921E-02 0.000E+00

     total cpu time spent up to now is       27.6 secs

     total energy              =     -75.35355574 Ry
     Harris-Foulkes estimate   =     -75.35361149 Ry
     estimated scf accuracy    <       0.00014228 Ry

     iteration #  2     ecut=    25.00 Ry     beta=0.70
     Davidson diagonalization with overlap
     ethr =  4.74E-07,  avg # of iterations =  4.0

     negative rho (up, down):  0.921E-02 0.000E+00

     total cpu time spent up to now is       28.2 secs

     total energy              =     -75.35356208 Ry
     Harris-Foulkes estimate   =     -75.35360997 Ry
     estimated scf accuracy    <       0.00008852 Ry

     iteration #  3     ecut=    25.00 Ry     beta=0.70
     Davidson diagonalization with overlap
     ethr =  2.95E-07,  avg # of iterations =  3.0

     negative rho (up, down):  0.920E-02 0.000E+00

     total cpu time spent up to now is       28.8 secs

     total energy              =     -75.35358644 Ry
     Harris-Foulkes estimate   =     -75.35359322 Ry
     estimated scf accuracy    <       0.00001716 Ry

     iteration #  4     ecut=    25.00 Ry     beta=0.70
     Davidson diagonalization with overlap
     ethr =  5.72E-08,  avg # of iterations =  4.0

     negative rho (up, down):  0.920E-02 0.000E+00

     total cpu time spent up to now is       29.3 secs

     End of self-consistent calculation

          k = 0.0000 0.0000 0.0000 (  8440 PWs)   bands (ev):

   -20.6556 -17.8915 -17.8373 -14.2450 -14.2252 -12.2733 -10.5819 -10.3347
    -9.6725  -9.5832  -8.5159  -7.6927  -7.6062  -5.8018  -5.7618

!    total energy              =     -75.35358958 Ry
     Harris-Foulkes estimate   =     -75.35358995 Ry
     estimated scf accuracy    <       0.00000058 Ry

     convergence has been achieved in   4 iterations

     Forces acting on atoms (Ry/au):

     atom    1 type  1   force =    -0.00578320    0.01063955   -0.00547286
     atom    2 type  2   force =     0.00513477   -0.00183825   -0.00428530
     atom    3 type  1   force =    -0.00496671   -0.00278982   -0.00537698
     atom    4 type  2   force =    -0.00179277   -0.00526416    0.00477721
     atom    5 type  1   force =     0.00307091    0.01871334    0.00777038
     atom    6 type  2   force =     0.00019810   -0.00721211    0.00109722
     atom    7 type  1   force =    -0.01061459    0.00332648    0.00288097
     atom    8 type  2   force =     0.00641360    0.00094050   -0.00547457
     atom    9 type  1   force =     0.00270811   -0.01208727   -0.00672220
     atom   10 type  2   force =     0.00037762    0.00692347    0.00043536
     atom   11 type  1   force =     0.00867105   -0.01619669    0.00741988
     atom   12 type  2   force =    -0.00334684    0.00485535    0.00289221

     Total force =     0.041227     Total SCF correction =     0.001303

     Entering Dynamics:    iteration =     8
                           time      =   0.0077 pico-seconds


ATOMIC_POSITIONS (angstrom)
C        6.572465493   5.488341394   4.759473987
H        7.567989477   5.651795473   4.345596172
C        5.881317893   6.564092634   5.345527593
H        6.330820029   7.563356306   5.355026574
C        4.601283374   6.348658957   5.877040065
H        4.071313376   7.205711638   6.304792609
C        4.034624344   5.073051624   5.876026182
H        3.056936344   4.927004940   6.348036932
C        4.701658012   4.020723283   5.252221856
H        4.268375702   3.016161625   5.216687562
C        5.955848350   4.241229995   4.661859025
H        6.475675624   3.415363245   4.165339205


     kinetic energy (Ekin) =     0.00624388 Ry
     temperature           =    59.74727835 K 
     Ekin + Etot (const)   =   -75.34734569 Ry
     Message from routine dynamics:
     Total linear momentum <> 0

     Linear momentum :   -0.2181936747   -0.2040807357   -0.0908020541
     Check: negative starting charge=   -0.001498
     NEW-OLD atomic charge density approx. for the potential
     Check: negative starting charge=   -0.001501

     negative rho (up, down):  0.923E-02 0.000E+00

     total cpu time spent up to now is       30.5 secs

     per-process dynamical memory:    19.1 Mb

     Self-consistent Calculation

     iteration #  1     ecut=    25.00 Ry     beta=0.70
     Davidson diagonalization with overlap
     ethr =  1.00E-06,  avg # of iterations =  4.0

     negative rho (up, down):  0.923E-02 0.000E+00

     total cpu time spent up to now is       31.3 secs

     total energy              =     -75.35376443 Ry
     Harris-Foulkes estimate   =     -75.35382998 Ry
     estimated scf accuracy    <       0.00016719 Ry

     iteration #  2     ecut=    25.00 Ry     beta=0.70
     Davidson diagonalization with overlap
     ethr =  5.57E-07,  avg # of iterations =  3.0

     negative rho (up, down):  0.923E-02 0.000E+00

     total cpu time spent up to now is       31.9 secs

     total energy              =     -75.35377170 Ry
     Harris-Foulkes estimate   =     -75.35382370 Ry
     estimated scf accuracy    <       0.00009428 Ry

     iteration #  3     ecut=    25.00 Ry     beta=0.70
     Davidson diagonalization with overlap
     ethr =  3.14E-07,  avg # of iterations =  4.0

     negative rho (up, down):  0.922E-02 0.000E+00

     total cpu time spent up to now is       32.6 secs

     total energy              =     -75.35379799 Ry
     Harris-Foulkes estimate   =     -75.35380679 Ry
     estimated scf accuracy    <       0.00002183 Ry

     iteration #  4     ecut=    25.00 Ry     beta=0.70
     Davidson diagonalization with overlap
     ethr =  7.28E-08,  avg # of iterations =  3.0

     negative rho (up, down):  0.922E-02 0.000E+00

     total cpu time spent up to now is       33.1 secs

     End of self-consistent calculation

          k = 0.0000 0.0000 0.0000 (  8440 PWs)   bands (ev):

   -20.6470 -17.8871 -17.8446 -14.2650 -14.2241 -12.2851 -10.6087 -10.3295
    -9.6707  -9.6010  -8.5080  -7.7019  -7.6105  -5.7993  -5.7598

!    total energy              =     -75.35380204 Ry
     Harris-Foulkes estimate   =     -75.35380238 Ry
     estimated scf accuracy    <       0.00000056 Ry

     convergence has been achieved in   4 iterations

     Forces acting on atoms (Ry/au):

     atom    1 type  1   force =    -0.01052970    0.01699914   -0.00162825
     atom    2 type  2   force =     0.00573430   -0.00117062   -0.00390047
     atom    3 type  1   force =    -0.00114476   -0.01205088   -0.00614613
     atom    4 type  2   force =    -0.00135208   -0.00243006    0.00310536
     atom    5 type  1   force =     0.01373464    0.01856511    0.00326773
     atom    6 type  2   force =    -0.00383562   -0.00449992    0.00313042
     atom    7 type  1   force =    -0.01197260    0.00493679    0.00152452
     atom    8 type  2   force =     0.00133277   -0.00344981   -0.00279812
     atom    9 type  1   force =     0.00873939   -0.00819579   -0.00704762
     atom   10 type  2   force =    -0.00303694    0.00236554    0.00059084
     atom   11 type  1   force =     0.00334133   -0.01168954    0.00881251
     atom   12 type  2   force =    -0.00088216    0.00062117    0.00099533

     Total force =     0.043243     Total SCF correction =     0.001222

     Entering Dynamics:    iteration =     9
                           time      =   0.0087 pico-seconds


ATOMIC_POSITIONS (angstrom)
C        6.571380062   5.486103185   4.755870684
H        7.565112591   5.648420612   4.338297868
C        5.876999088   6.564615141   5.344755786
H        6.333180352   7.557684373   5.371898359
C        4.597471799   6.347962066   5.878481985
H        4.076555717   7.203281759   6.309823050
C        4.035569864   5.072341296   5.874633384
H        3.057873229   4.942443958   6.339511567
C        4.699608412   4.019143752   5.250818865
H        4.272940988   3.016872096   5.216160155
C        5.956926893   4.238034790   4.663058330
H        6.473082622   3.416263724   4.165644549


     kinetic energy (Ekin) =     0.00641144 Ry
     temperature           =    61.35062487 K 
     Ekin + Etot (const)   =   -75.34739060 Ry
     Message from routine dynamics:
     Total linear momentum <> 0

     Linear momentum :   -0.2223862571   -0.1921163718   -0.1044150949
     Check: negative starting charge=   -0.001501
     NEW-OLD atomic charge density approx. for the potential
     Check: negative starting charge=   -0.001502

     negative rho (up, down):  0.925E-02 0.000E+00

     total cpu time spent up to now is       34.2 secs

     per-process dynamical memory:    19.1 Mb

     Self-consistent Calculation

     iteration #  1     ecut=    25.00 Ry     beta=0.70
     Davidson diagonalization with overlap
     ethr =  1.00E-06,  avg # of iterations =  4.0

     negative rho (up, down):  0.924E-02 0.000E+00

     total cpu time spent up to now is       34.9 secs

     total energy              =     -75.35349547 Ry
     Harris-Foulkes estimate   =     -75.35355669 Ry
     estimated scf accuracy    <       0.00016379 Ry

     iteration #  2     ecut=    25.00 Ry     beta=0.70
     Davidson diagonalization with overlap
     ethr =  5.46E-07,  avg # of iterations =  3.0

     negative rho (up, down):  0.924E-02 0.000E+00

     total cpu time spent up to now is       35.5 secs

     total energy              =     -75.35350221 Ry
     Harris-Foulkes estimate   =     -75.35354923 Ry
     estimated scf accuracy    <       0.00008421 Ry

     iteration #  3     ecut=    25.00 Ry     beta=0.70
     Davidson diagonalization with overlap
     ethr =  2.81E-07,  avg # of iterations =  4.0

     negative rho (up, down):  0.923E-02 0.000E+00

     total cpu time spent up to now is       36.4 secs

     total energy              =     -75.35352584 Ry
     Harris-Foulkes estimate   =     -75.35353534 Ry
     estimated scf accuracy    <       0.00002333 Ry

     iteration #  4     ecut=    25.00 Ry     beta=0.70
     Davidson diagonalization with overlap
     ethr =  7.78E-08,  avg # of iterations =  3.0

     negative rho (up, down):  0.923E-02 0.000E+00

     total cpu time spent up to now is       36.9 secs

     End of self-consistent calculation

          k = 0.0000 0.0000 0.0000 (  8440 PWs)   bands (ev):

   -20.6385 -17.8914 -17.8436 -14.2874 -14.2217 -12.2969 -10.6370 -10.3244
    -9.6690  -9.6178  -8.5006  -7.7111  -7.6130  -5.7999  -5.7542

!    total energy              =     -75.35353019 Ry
     Harris-Foulkes estimate   =     -75.35353050 Ry
     estimated scf accuracy    <       0.00000053 Ry

     convergence has been achieved in   4 iterations

     Forces acting on atoms (Ry/au):

     atom    1 type  1   force =    -0.01475152    0.02172885    0.00169212
     atom    2 type  2   force =     0.00622395   -0.00044757   -0.00348225
     atom    3 type  1   force =     0.00232817   -0.02013989   -0.00653969
     atom    4 type  2   force =    -0.00060142    0.00071169    0.00142239
     atom    5 type  1   force =     0.02318995    0.01686644   -0.00102201
     atom    6 type  2   force =    -0.00763172   -0.00125311    0.00518532
     atom    7 type  1   force =    -0.01210117    0.00643568   -0.00047729
     atom    8 type  2   force =    -0.00422952   -0.00759492    0.00012721
     atom    9 type  1   force =     0.01413106   -0.00355472   -0.00683318
     atom   10 type  2   force =    -0.00638070   -0.00252020    0.00064085
     atom   11 type  1   force =    -0.00180014   -0.00651414    0.01020592
     atom   12 type  2   force =     0.00176683   -0.00370373   -0.00103639

     Total force =     0.053369     Total SCF correction =     0.001176

     Entering Dynamics:    iteration =    10
                           time      =   0.0097 pico-seconds


ATOMIC_POSITIONS (angstrom)
C        6.570081353   5.484599617   4.752164247
H        7.562424871   5.645503844   4.331022523
C        5.872906267   6.564864061   5.343739893
H        6.335433710   7.552301989   5.388780871
C        4.594322638   6.347815544   5.879770916
H        4.080178363   7.200779906   6.316195529
C        4.036447438   5.071970117   5.873104560
H        3.057665998   4.956136930   6.330825854
C        4.698028597   4.017707809   5.249140179
H        4.276310785   3.016839829   5.215901006
C        5.958119365   4.234913924   4.664333281
H        6.471213021   3.415984480   4.165694820


     kinetic energy (Ekin) =     0.00601510 Ry
     temperature           =    57.55802925 K 
     Ekin + Etot (const)   =   -75.34751509 Ry
     Message from routine dynamics:
     Total linear momentum <> 0

     Linear momentum :   -0.1984374754   -0.1580543900   -0.1233728149
     Check: negative starting charge=   -0.001502
     NEW-OLD atomic charge density approx. for the potential
     Check: negative starting charge=   -0.001501

     negative rho (up, down):  0.925E-02 0.000E+00

     total cpu time spent up to now is       38.2 secs

     per-process dynamical memory:    19.1 Mb

     Self-consistent Calculation

     iteration #  1     ecut=    25.00 Ry     beta=0.70
     Davidson diagonalization with overlap
     ethr =  1.00E-06,  avg # of iterations =  4.0

     negative rho (up, down):  0.924E-02 0.000E+00

     total cpu time spent up to now is       38.8 secs

     total energy              =     -75.35297090 Ry
     Harris-Foulkes estimate   =     -75.35301327 Ry
     estimated scf accuracy    <       0.00013027 Ry

     iteration #  2     ecut=    25.00 Ry     beta=0.70
     Davidson diagonalization with overlap
     ethr =  4.34E-07,  avg # of iterations =  3.0

     negative rho (up, down):  0.924E-02 0.000E+00

     total cpu time spent up to now is       39.5 secs

     total energy              =     -75.35297539 Ry
     Harris-Foulkes estimate   =     -75.35300891 Ry
     estimated scf accuracy    <       0.00005965 Ry

     iteration #  3     ecut=    25.00 Ry     beta=0.70
     Davidson diagonalization with overlap
     ethr =  1.99E-07,  avg # of iterations =  4.0

     negative rho (up, down):  0.924E-02 0.000E+00

     total cpu time spent up to now is       40.1 secs

     total energy              =     -75.35299212 Ry
     Harris-Foulkes estimate   =     -75.35300068 Ry
     estimated scf accuracy    <       0.00002101 Ry

     iteration #  4     ecut=    25.00 Ry     beta=0.70
     Davidson diagonalization with overlap
     ethr =  7.00E-08,  avg # of iterations =  3.0

     negative rho (up, down):  0.924E-02 0.000E+00

     total cpu time spent up to now is       40.6 secs

     End of self-consistent calculation

          k = 0.0000 0.0000 0.0000 (  8440 PWs)   bands (ev):

   -20.6313 -17.8992 -17.8369 -14.3052 -14.2174 -12.3040 -10.6573 -10.3206
    -9.6669  -9.6284  -8.4952  -7.7167  -7.6135  -5.8018  -5.7484

!    total energy              =     -75.35299605 Ry
     Harris-Foulkes estimate   =     -75.35299627 Ry
     estimated scf accuracy    <       0.00000039 Ry

     convergence has been achieved in   4 iterations

     Forces acting on atoms (Ry/au):

     atom    1 type  1   force =    -0.01796955    0.02463905    0.00425187
     atom    2 type  2   force =     0.00635479    0.00027156   -0.00295204
     atom    3 type  1   force =     0.00589327   -0.02564958   -0.00653258
     atom    4 type  2   force =    -0.00000096    0.00309788   -0.00025590
     atom    5 type  1   force =     0.03002591    0.01487306   -0.00417566
     atom    6 type  2   force =    -0.01021890    0.00114597    0.00650868
     atom    7 type  1   force =    -0.01268409    0.00745986   -0.00222921
     atom    8 type  2   force =    -0.00832755   -0.01104368    0.00238547
     atom    9 type  1   force =     0.01783863   -0.00006222   -0.00607669
     atom   10 type  2   force =    -0.00880003   -0.00587659    0.00063480
     atom   11 type  1   force =    -0.00567269   -0.00215186    0.01067714
     atom   12 type  2   force =     0.00370571   -0.00667743   -0.00234949

     Total force =     0.064274     Total SCF correction =     0.001035

     Entering Dynamics:    iteration =    11
                           time      =   0.0106 pico-seconds


ATOMIC_POSITIONS (angstrom)
C        6.568665107   5.484008923   4.748382016
H        7.560179289   5.643337986   4.323944053
C        5.869274839   6.564841720   5.342445868
H        6.337879719   7.547936681   5.405135495
C        4.592141730   6.348294882   5.880807140
H        4.081694134   7.198939616   6.324209055
C        4.037409987   5.072078211   5.871368855
H        3.055437627   4.967334053   6.322519788
C        4.697159874   4.016608261   5.247167819
H        4.278032126   3.015321822   5.215880223
C        5.959506603   4.232077057   4.665661126
H        6.470726208   3.413890230   4.165129463


     kinetic energy (Ekin) =     0.00531035 Ry
     temperature           =    50.81436767 K 
     Ekin + Etot (const)   =   -75.34768570 Ry
     Message from routine dynamics:
     Total linear momentum <> 0

     Linear momentum :   -0.1470472390   -0.1041538729   -0.1477857673
     Check: negative starting charge=   -0.001501
     NEW-OLD atomic charge density approx. for the potential
     Check: negative starting charge=   -0.001500

     negative rho (up, down):  0.923E-02 0.000E+00

     total cpu time spent up to now is       41.8 secs

     per-process dynamical memory:    19.1 Mb

     Self-consistent Calculation

     iteration #  1     ecut=    25.00 Ry     beta=0.70
     Davidson diagonalization with overlap
     ethr =  1.00E-06,  avg # of iterations =  4.0

     negative rho (up, down):  0.923E-02 0.000E+00

     total cpu time spent up to now is       42.4 secs

     total energy              =     -75.35255136 Ry
     Harris-Foulkes estimate   =     -75.35257633 Ry
     estimated scf accuracy    <       0.00009709 Ry

     iteration #  2     ecut=    25.00 Ry     beta=0.70
     Davidson diagonalization with overlap
     ethr =  3.24E-07,  avg # of iterations =  3.0

     negative rho (up, down):  0.923E-02 0.000E+00

     total cpu time spent up to now is       43.0 secs

     total energy              =     -75.35255467 Ry
     Harris-Foulkes estimate   =     -75.35257367 Ry
     estimated scf accuracy    <       0.00003351 Ry

     iteration #  3     ecut=    25.00 Ry     beta=0.70
     Davidson diagonalization with overlap
     ethr =  1.12E-07,  avg # of iterations =  4.0

     negative rho (up, down):  0.923E-02 0.000E+00

     total cpu time spent up to now is       43.7 secs

     total energy              =     -75.35256370 Ry
     Harris-Foulkes estimate   =     -75.35257131 Ry
     estimated scf accuracy    <       0.00001839 Ry

     iteration #  4     ecut=    25.00 Ry     beta=0.70
     Davidson diagonalization with overlap
     ethr =  6.13E-08,  avg # of iterations =  3.0

     negative rho (up, down):  0.923E-02 0.000E+00

     total cpu time spent up to now is       44.2 secs

     End of self-consistent calculation

          k = 0.0000 0.0000 0.0000 (  8440 PWs)   bands (ev):

   -20.6268 -17.9051 -17.8285 -14.3151 -14.2099 -12.3035 -10.6632 -10.3189
    -9.6656  -9.6283  -8.4928  -7.7165  -7.6121  -5.8040  -5.7448

!    total energy              =     -75.35256718 Ry
     Harris-Foulkes estimate   =     -75.35256732 Ry
     estimated scf accuracy    <       0.00000026 Ry

     convergence has been achieved in   4 iterations

     Forces acting on atoms (Ry/au):

     atom    1 type  1   force =    -0.01988352    0.02564316    0.00591755
     atom    2 type  2   force =     0.00599857    0.00093670   -0.00227555
     atom    3 type  1   force =     0.00984420   -0.02763351   -0.00603064
     atom    4 type  2   force =     0.00008589    0.00395775   -0.00196418
     atom    5 type  1   force =     0.03322815    0.01361080   -0.00547401
     atom    6 type  2   force =    -0.01088247    0.00163182    0.00648760
     atom    7 type  1   force =    -0.01510047    0.00779738   -0.00308866
     atom    8 type  2   force =    -0.00941561   -0.01350859    0.00329739
     atom    9 type  1   force =     0.01912324    0.00082656   -0.00482889
     atom   10 type  2   force =    -0.00966147   -0.00629179    0.00060196
     atom   11 type  1   force =    -0.00746211    0.00024851    0.00954770
     atom   12 type  2   force =     0.00427160   -0.00721106   -0.00229556

     Total force =     0.069676     Total SCF correction =     0.000923

     Entering Dynamics:    iteration =    12
                           time      =   0.0116 pico-seconds


ATOMIC_POSITIONS (angstrom)
C        6.567209881   5.484433112   4.744545229
H        7.558459257   5.642163276   4.317274246
C        5.866303708   6.564587098   5.340863016
H        6.340644563   7.544895190   5.420427606
C        4.591114697   6.349454635   5.881542280
H        4.081048323   7.197982398   6.333843939
C        4.038527352   5.072755033   5.869386906
H        3.051013445   4.975493536   6.314811226
C        4.697148473   4.015947308   5.244906769
H        4.277996568   3.012270282   5.216072156
C        5.961168332   4.229656690   4.666998338
H        6.471894074   3.409912765   4.163934782


     kinetic energy (Ekin) =     0.00472560 Ry
     temperature           =    45.21895650 K 
     Ekin + Etot (const)   =   -75.34784158 Ry
     Message from routine dynamics:
     Total linear momentum <> 0

     Linear momentum :   -0.0757227492   -0.0365751177   -0.1755472956
     Check: negative starting charge=   -0.001500
     NEW-OLD atomic charge density approx. for the potential
     Check: negative starting charge=   -0.001498

     negative rho (up, down):  0.920E-02 0.000E+00

     total cpu time spent up to now is       45.4 secs

     per-process dynamical memory:    19.1 Mb

     Self-consistent Calculation

     iteration #  1     ecut=    25.00 Ry     beta=0.70
     Davidson diagonalization with overlap
     ethr =  1.00E-06,  avg # of iterations =  4.0

     negative rho (up, down):  0.920E-02 0.000E+00

     total cpu time spent up to now is       46.0 secs

     total energy              =     -75.35241471 Ry
     Harris-Foulkes estimate   =     -75.35243620 Ry
     estimated scf accuracy    <       0.00008854 Ry

     iteration #  2     ecut=    25.00 Ry     beta=0.70
     Davidson diagonalization with overlap
     ethr =  2.95E-07,  avg # of iterations =  2.0

     negative rho (up, down):  0.921E-02 0.000E+00

     total cpu time spent up to now is       46.6 secs

     total energy              =     -75.35242263 Ry
     Harris-Foulkes estimate   =     -75.35242855 Ry
     estimated scf accuracy    <       0.00001259 Ry

     iteration #  3     ecut=    25.00 Ry     beta=0.70
     Davidson diagonalization with overlap
     ethr =  4.20E-08,  avg # of iterations =  4.0

     negative rho (up, down):  0.921E-02 0.000E+00

     total cpu time spent up to now is       47.3 secs

     total energy              =     -75.35242483 Ry
     Harris-Foulkes estimate   =     -75.35242900 Ry
     estimated scf accuracy    <       0.00000887 Ry

     iteration #  4     ecut=    25.00 Ry     beta=0.70
     Davidson diagonalization with overlap
     ethr =  2.96E-08,  avg # of iterations =  3.0

     negative rho (up, down):  0.921E-02 0.000E+00

     total cpu time spent up to now is       47.8 secs

     End of self-consistent calculation

          k = 0.0000 0.0000 0.0000 (  8440 PWs)   bands (ev):

   -20.6254 -17.9074 -17.8206 -14.3161 -14.1991 -12.2950 -10.6534 -10.3194
    -9.6643  -9.6186  -8.4936  -7.7109  -7.6090  -5.8065  -5.7443

!    total energy              =     -75.35242663 Ry
     Harris-Foulkes estimate   =     -75.35242717 Ry
     estimated scf accuracy    <       0.00000068 Ry

     convergence has been achieved in   4 iterations

     Forces acting on atoms (Ry/au):

     atom    1 type  1   force =    -0.02052020    0.02470380    0.00670798
     atom    2 type  2   force =     0.00517243    0.00150114   -0.00148166
     atom    3 type  1   force =     0.01424229   -0.02598431   -0.00501508
     atom    4 type  2   force =    -0.00043801    0.00313527   -0.00373538
     atom    5 type  1   force =     0.03248026    0.01338360   -0.00465147
     atom    6 type  2   force =    -0.00948361    0.00000340    0.00494758
     atom    7 type  1   force =    -0.01966063    0.00732301   -0.00292982
     atom    8 type  2   force =    -0.00703306   -0.01488890    0.00271597
     atom    9 type  1   force =     0.01783608   -0.00112367   -0.00309698
     atom   10 type  2   force =    -0.00883242   -0.00350596    0.00053657
     atom   11 type  1   force =    -0.00698580    0.00047538    0.00668609
     atom   12 type  2   force =     0.00331499   -0.00505392   -0.00072223

     Total force =     0.068429     Total SCF correction =     0.001499

     Entering Dynamics:    iteration =    13
                           time      =   0.0126 pico-seconds


ATOMIC_POSITIONS (angstrom)
C        6.565744634   5.485879870   4.740680357
H        7.557149654   5.642141796   4.311258461
C        5.864124464   6.564161536   5.339016210
H        6.343618274   7.542999697   5.434134530
C        4.591267770   6.351318287   5.881996718
H        4.078625949   7.197542150   6.344725636
C        4.039746586   5.074019758   5.867165429
H        3.045014441   4.980290502   6.307566346
C        4.698009614   4.015713447   5.242396531
H        4.276442390   3.008390420   5.216467359
C        5.963155334   4.227685989   4.668289498
H        6.474529486   3.404608039   4.162500948


     kinetic energy (Ekin) =     0.00450429 Ry
     temperature           =    43.10120851 K 
     Ekin + Etot (const)   =   -75.34792235 Ry
     Message from routine dynamics:
     Total linear momentum <> 0

     Linear momentum :    0.0025745519    0.0356549345   -0.2025709795
     Check: negative starting charge=   -0.001498
     NEW-OLD atomic charge density approx. for the potential
     Check: negative starting charge=   -0.001495

     negative rho (up, down):  0.917E-02 0.000E+00

     total cpu time spent up to now is       48.9 secs

     per-process dynamical memory:    19.1 Mb

     Self-consistent Calculation

     iteration #  1     ecut=    25.00 Ry     beta=0.70
     Davidson diagonalization with overlap
     ethr =  1.00E-06,  avg # of iterations =  4.0

     negative rho (up, down):  0.917E-02 0.000E+00

     total cpu time spent up to now is       49.6 secs

     total energy              =     -75.35243945 Ry
     Harris-Foulkes estimate   =     -75.35247730 Ry
     estimated scf accuracy    <       0.00011048 Ry

     iteration #  2     ecut=    25.00 Ry     beta=0.70
     Davidson diagonalization with overlap
     ethr =  3.68E-07,  avg # of iterations =  3.0

     negative rho (up, down):  0.919E-02 0.000E+00

     total cpu time spent up to now is       50.2 secs

     total energy              =     -75.35244701 Ry
     Harris-Foulkes estimate   =     -75.35246622 Ry
     estimated scf accuracy    <       0.00003284 Ry

     iteration #  3     ecut=    25.00 Ry     beta=0.70
     Davidson diagonalization with overlap
     ethr =  1.09E-07,  avg # of iterations =  4.0

     negative rho (up, down):  0.919E-02 0.000E+00

     total cpu time spent up to now is       50.8 secs

     total energy              =     -75.35245550 Ry
     Harris-Foulkes estimate   =     -75.35246337 Ry
     estimated scf accuracy    <       0.00001808 Ry

     iteration #  4     ecut=    25.00 Ry     beta=0.70
     Davidson diagonalization with overlap
     ethr =  6.03E-08,  avg # of iterations =  3.0

     negative rho (up, down):  0.919E-02 0.000E+00

     total cpu time spent up to now is       51.3 secs

     End of self-consistent calculation

          k = 0.0000 0.0000 0.0000 (  8440 PWs)   bands (ev):

   -20.6256 -17.9059 -17.8130 -14.3092 -14.1866 -12.2805 -10.6316 -10.3208
    -9.6611  -9.6037  -8.4961  -7.7020  -7.6043  -5.8085  -5.7457

!    total energy              =     -75.35245902 Ry
     Harris-Foulkes estimate   =     -75.35245944 Ry
     estimated scf accuracy    <       0.00000062 Ry

     convergence has been achieved in   4 iterations

     Forces acting on atoms (Ry/au):

     atom    1 type  1   force =    -0.02000423    0.02185918    0.00671633
     atom    2 type  2   force =     0.00425572    0.00200576   -0.00075818
     atom    3 type  1   force =     0.01846695   -0.02118316   -0.00338725
     atom    4 type  2   force =    -0.00139693    0.00114517   -0.00553206
     atom    5 type  1   force =     0.02829168    0.01339186   -0.00211177
     atom    6 type  2   force =    -0.00640772   -0.00314300    0.00215716
     atom    7 type  1   force =    -0.02533056    0.00629640   -0.00218511
     atom    8 type  2   force =    -0.00202856   -0.01519597    0.00108234
     atom    9 type  1   force =     0.01436407   -0.00486491   -0.00087565
     atom   10 type  2   force =    -0.00674064    0.00147179    0.00040457
     atom   11 type  1   force =    -0.00477678   -0.00085689    0.00256916
     atom   12 type  2   force =     0.00134652   -0.00103870    0.00184867

     Total force =     0.063702     Total SCF correction =     0.001453

     Entering Dynamics:    iteration =    14
                           time      =   0.0135 pico-seconds


ATOMIC_POSITIONS (angstrom)
C        6.564236008   5.488259637   4.736826742
H        7.556016071   5.643358019   4.306132813
C        5.862779358   6.563634588   5.336973953
H        6.346492618   7.541713713   5.445746559
C        4.592468125   6.353858188   5.882257631
H        4.075146691   7.196808740   6.356196682
C        4.040903036   5.075822295   5.864754569
H        3.038642849   4.981609491   6.300413520
C        4.699625834   4.015799140   5.239717323
H        4.273843091   3.004891565   5.217068867
C        5.965468606   4.226107713   4.669482871
H        6.478098661   3.398950646   4.161501902


     kinetic energy (Ekin) =     0.00455040 Ry
     temperature           =    43.54242388 K 
     Ekin + Etot (const)   =   -75.34790862 Ry
     Message from routine dynamics:
     Total linear momentum <> 0

     Linear momentum :    0.0732609811    0.1028466856   -0.2238767772
     Check: negative starting charge=   -0.001495
     NEW-OLD atomic charge density approx. for the potential
     Check: negative starting charge=   -0.001492

     negative rho (up, down):  0.914E-02 0.000E+00

     total cpu time spent up to now is       52.4 secs

     per-process dynamical memory:    19.1 Mb

     Self-consistent Calculation

     iteration #  1     ecut=    25.00 Ry     beta=0.70
     Davidson diagonalization with overlap
     ethr =  1.00E-06,  avg # of iterations =  4.0

     negative rho (up, down):  0.914E-02 0.000E+00

     total cpu time spent up to now is       53.1 secs

     total energy              =     -75.35245178 Ry
     Harris-Foulkes estimate   =     -75.35249615 Ry
     estimated scf accuracy    <       0.00011638 Ry

     iteration #  2     ecut=    25.00 Ry     beta=0.70
     Davidson diagonalization with overlap
     ethr =  3.88E-07,  avg # of iterations =  3.0

     negative rho (up, down):  0.916E-02 0.000E+00

     total cpu time spent up to now is       53.7 secs

     total energy              =     -75.35245885 Ry
     Harris-Foulkes estimate   =     -75.35248301 Ry
     estimated scf accuracy    <       0.00004114 Ry

     iteration #  3     ecut=    25.00 Ry     beta=0.70
     Davidson diagonalization with overlap
     ethr =  1.37E-07,  avg # of iterations =  4.0

     negative rho (up, down):  0.916E-02 0.000E+00

     total cpu time spent up to now is       54.3 secs

     total energy              =     -75.35247002 Ry
     Harris-Foulkes estimate   =     -75.35247822 Ry
     estimated scf accuracy    <       0.00001910 Ry

     iteration #  4     ecut=    25.00 Ry     beta=0.70
     Davidson diagonalization with overlap
     ethr =  6.37E-08,  avg # of iterations =  3.0

     negative rho (up, down):  0.916E-02 0.000E+00

     total cpu time spent up to now is       54.8 secs

     End of self-consistent calculation

          k = 0.0000 0.0000 0.0000 (  8440 PWs)   bands (ev):

   -20.6279 -17.9031 -17.8082 -14.2984 -14.1768 -12.2653 -10.6059 -10.3236
    -9.6582  -9.5889  -8.4999  -7.6947  -7.5990  -5.8109  -5.7487

!    total energy              =     -75.35247370 Ry
     Harris-Foulkes estimate   =     -75.35247404 Ry
     estimated scf accuracy    <       0.00000052 Ry

     convergence has been achieved in   4 iterations

     Forces acting on atoms (Ry/au):

     atom    1 type  1   force =    -0.01875544    0.01743617    0.00621530
     atom    2 type  2   force =     0.00340065    0.00241321   -0.00017689
     atom    3 type  1   force =     0.02216268   -0.01457043   -0.00140680
     atom    4 type  2   force =    -0.00234884   -0.00112664   -0.00725086
     atom    5 type  1   force =     0.02163850    0.01244839    0.00140437
     atom    6 type  2   force =    -0.00255866   -0.00642465   -0.00113359
     atom    7 type  1   force =    -0.03030271    0.00485646   -0.00161010
     atom    8 type  2   force =     0.00379816   -0.01458509   -0.00077084
     atom    9 type  1   force =     0.00981273   -0.00854296    0.00170251
     atom   10 type  2   force =    -0.00409554    0.00686834    0.00014562
     atom   11 type  1   force =    -0.00194186   -0.00241899   -0.00177623
     atom   12 type  2   force =    -0.00084706    0.00352942    0.00461260

     Total force =     0.060054     Total SCF correction =     0.001297

     Entering Dynamics:    iteration =    15
                           time      =   0.0145 pico-seconds


ATOMIC_POSITIONS (angstrom)
C        6.562591625   5.491404831   4.733041151
H        7.554765840   5.645824728   4.302099147
C        5.862224340   6.563069632   5.334842875
H        6.348874957   7.540376541   5.454800168
C        4.594456375   6.356983370   5.882462954
H        4.071453412   7.194880947   6.367499000
C        4.041769890   5.078059639   5.862231024
H        3.033245755   4.979519993   6.292951084
C        4.701781076   4.016052499   5.236986895
H        4.270736703   3.003054664   5.217878681
C        5.968047946   4.224814598   4.670551070
H        6.481932167   3.394016150   4.161691129


     kinetic energy (Ekin) =     0.00463927 Ry
     temperature           =    44.39288201 K 
     Ekin + Etot (const)   =   -75.34783443 Ry
     Message from routine dynamics:
     Total linear momentum <> 0

     Linear momentum :    0.1236847816    0.1575303716   -0.2345163973
     Check: negative starting charge=   -0.001492
     NEW-OLD atomic charge density approx. for the potential
     Check: negative starting charge=   -0.001490

     negative rho (up, down):  0.912E-02 0.000E+00

     total cpu time spent up to now is       56.0 secs

     per-process dynamical memory:    19.1 Mb

     Self-consistent Calculation

     iteration #  1     ecut=    25.00 Ry     beta=0.70
     Davidson diagonalization with overlap
     ethr =  1.00E-06,  avg # of iterations =  4.0

     negative rho (up, down):  0.912E-02 0.000E+00

     total cpu time spent up to now is       56.6 secs

     total energy              =     -75.35243402 Ry
     Harris-Foulkes estimate   =     -75.35247435 Ry
     estimated scf accuracy    <       0.00010240 Ry

     iteration #  2     ecut=    25.00 Ry     beta=0.70
     Davidson diagonalization with overlap
     ethr =  3.41E-07,  avg # of iterations =  3.0

     negative rho (up, down):  0.913E-02 0.000E+00

     total cpu time spent up to now is       57.2 secs

     total energy              =     -75.35244155 Ry
     Harris-Foulkes estimate   =     -75.35246725 Ry
     estimated scf accuracy    <       0.00004493 Ry

     iteration #  3     ecut=    25.00 Ry     beta=0.70
     Davidson diagonalization with overlap
     ethr =  1.50E-07,  avg # of iterations =  4.0

     negative rho (up, down):  0.914E-02 0.000E+00

     total cpu time spent up to now is       57.9 secs

     total energy              =     -75.35245397 Ry
     Harris-Foulkes estimate   =     -75.35246060 Ry
     estimated scf accuracy    <       0.00001571 Ry

     iteration #  4     ecut=    25.00 Ry     beta=0.70
     Davidson diagonalization with overlap
     ethr =  5.24E-08,  avg # of iterations =  3.0

     negative rho (up, down):  0.914E-02 0.000E+00

     total cpu time spent up to now is       58.4 secs

     End of self-consistent calculation

          k = 0.0000 0.0000 0.0000 (  8440 PWs)   bands (ev):

   -20.6298 -17.9003 -17.8054 -14.2867 -14.1725 -12.2535 -10.5846 -10.3263
    -9.6578  -9.5766  -8.5027  -7.6922  -7.5932  -5.8131  -5.7511

!    total energy              =     -75.35245695 Ry
     Harris-Foulkes estimate   =     -75.35245725 Ry
     estimated scf accuracy    <       0.00000045 Ry

     convergence has been achieved in   4 iterations

     Forces acting on atoms (Ry/au):

     atom    1 type  1   force =    -0.01691811    0.01163543    0.00533880
     atom    2 type  2   force =     0.00289456    0.00274347    0.00011642
     atom    3 type  1   force =     0.02450915   -0.00750199    0.00082250
     atom    4 type  2   force =    -0.00281938   -0.00265873   -0.00870794
     atom    5 type  1   force =     0.01388321    0.00948500    0.00492505
     atom    6 type  2   force =     0.00109211   -0.00846945   -0.00408531
     atom    7 type  1   force =    -0.03273061    0.00304115   -0.00200719
     atom    8 type  2   force =     0.00861025   -0.01324116   -0.00207435
     atom    9 type  1   force =     0.00505825   -0.01033196    0.00458020
     atom   10 type  2   force =    -0.00166568    0.01092535   -0.00024883
     atom   11 type  1   force =     0.00050109   -0.00291389   -0.00537444
     atom   12 type  2   force =    -0.00243762    0.00724181    0.00670352

     Total force =     0.058016     Total SCF correction =     0.001172

     Entering Dynamics:    iteration =    16
                           time      =   0.0155 pico-seconds


ATOMIC_POSITIONS (angstrom)
C        6.560693885   5.495093382   4.729387084
H        7.553152221   5.649505696   4.299278140
C        5.862350530   6.562513665   5.332750965
H        6.350452737   7.538479787   5.460915641
C        4.596911870   6.360534994   5.882766935
H        4.068303594   7.191136298   6.377971328
C        4.042135115   5.080595369   5.859667887
H        3.029885728   4.974249039   6.284930559
C        4.704217440   4.016335057   5.234345169
H        4.267573899   3.003806856   5.218878796
C        5.970787440   4.223696028   4.671498071
H        6.485468351   3.390645488   4.163669974


     kinetic energy (Ekin) =     0.00470131 Ry
     temperature           =    44.98647352 K 
     Ekin + Etot (const)   =   -75.34775564 Ry
     Message from routine dynamics:
     Total linear momentum <> 0

     Linear momentum :    0.1475668924    0.1954089396   -0.2318759621
     Check: negative starting charge=   -0.001490
     NEW-OLD atomic charge density approx. for the potential
     Check: negative starting charge=   -0.001489

     negative rho (up, down):  0.912E-02 0.000E+00

     total cpu time spent up to now is       59.5 secs

     per-process dynamical memory:    19.1 Mb

     Self-consistent Calculation

     iteration #  1     ecut=    25.00 Ry     beta=0.70
     Davidson diagonalization with overlap
     ethr =  1.00E-06,  avg # of iterations =  4.0

     negative rho (up, down):  0.912E-02 0.000E+00

     total cpu time spent up to now is       60.2 secs

     total energy              =     -75.35252516 Ry
     Harris-Foulkes estimate   =     -75.35255881 Ry
     estimated scf accuracy    <       0.00008698 Ry

     iteration #  2     ecut=    25.00 Ry     beta=0.70
     Davidson diagonalization with overlap
     ethr =  2.90E-07,  avg # of iterations =  3.0

     negative rho (up, down):  0.913E-02 0.000E+00

     total cpu time spent up to now is       60.9 secs

     total energy              =     -75.35252909 Ry
     Harris-Foulkes estimate   =     -75.35255439 Ry
     estimated scf accuracy    <       0.00004534 Ry

     iteration #  3     ecut=    25.00 Ry     beta=0.70
     Davidson diagonalization with overlap
     ethr =  1.51E-07,  avg # of iterations =  4.0

     negative rho (up, down):  0.913E-02 0.000E+00

     total cpu time spent up to now is       61.5 secs

     total energy              =     -75.35254173 Ry
     Harris-Foulkes estimate   =     -75.35254679 Ry
     estimated scf accuracy    <       0.00001238 Ry

     iteration #  4     ecut=    25.00 Ry     beta=0.70
     Davidson diagonalization with overlap
     ethr =  4.13E-08,  avg # of iterations =  3.0

     negative rho (up, down):  0.913E-02 0.000E+00

     total cpu time spent up to now is       62.0 secs

     End of self-consistent calculation

          k = 0.0000 0.0000 0.0000 (  8440 PWs)   bands (ev):

   -20.6302 -17.8991 -17.8043 -14.2765 -14.1760 -12.2486 -10.5744 -10.3280
    -9.6619  -9.5684  -8.5032  -7.6957  -7.5881  -5.8150  -5.7512

!    total energy              =     -75.35254403 Ry
     Harris-Foulkes estimate   =     -75.35254424 Ry
     estimated scf accuracy    <       0.00000033 Ry

     convergence has been achieved in   4 iterations

     Forces acting on atoms (Ry/au):

     atom    1 type  1   force =    -0.01473521    0.00478737    0.00424570
     atom    2 type  2   force =     0.00286480    0.00296514    0.00004720
     atom    3 type  1   force =     0.02494689   -0.00105171    0.00312078
     atom    4 type  2   force =    -0.00248286   -0.00273891   -0.00972533
     atom    5 type  1   force =     0.00623374    0.00385381    0.00761326
     atom    6 type  2   force =     0.00376355   -0.00838130   -0.00601870
     atom    7 type  1   force =    -0.03152273    0.00100090   -0.00373107
     atom    8 type  2   force =     0.01107957   -0.01135638   -0.00232114
     atom    9 type  1   force =     0.00092017   -0.00904603    0.00759525
[...]

     per-process dynamical memory:    19.1 Mb

     Self-consistent Calculation

     iteration #  1     ecut=    25.00 Ry     beta=0.70
     Davidson diagonalization with overlap
     ethr =  1.00E-06,  avg # of iterations =  4.0

     negative rho (up, down):  0.922E-02 0.000E+00

     total cpu time spent up to now is      353.8 secs

     total energy              =     -75.35240216 Ry
     Harris-Foulkes estimate   =     -75.35243217 Ry
     estimated scf accuracy    <       0.00010101 Ry

     iteration #  2     ecut=    25.00 Ry     beta=0.70
     Davidson diagonalization with overlap
     ethr =  3.37E-07,  avg # of iterations =  3.0

     negative rho (up, down):  0.922E-02 0.000E+00

     total cpu time spent up to now is      354.5 secs

     total energy              =     -75.35240645 Ry
     Harris-Foulkes estimate   =     -75.35242883 Ry
     estimated scf accuracy    <       0.00003970 Ry

     iteration #  3     ecut=    25.00 Ry     beta=0.70
     Davidson diagonalization with overlap
     ethr =  1.32E-07,  avg # of iterations =  4.0

     negative rho (up, down):  0.923E-02 0.000E+00

     total cpu time spent up to now is      355.1 secs

     total energy              =     -75.35241730 Ry
     Harris-Foulkes estimate   =     -75.35242444 Ry
     estimated scf accuracy    <       0.00001715 Ry

     iteration #  4     ecut=    25.00 Ry     beta=0.70
     Davidson diagonalization with overlap
     ethr =  5.72E-08,  avg # of iterations =  3.0

     negative rho (up, down):  0.923E-02 0.000E+00

     total cpu time spent up to now is      355.6 secs

     End of self-consistent calculation

          k = 0.0000 0.0000 0.0000 (  8440 PWs)   bands (ev):

   -20.6315 -17.9160 -17.8209 -14.3206 -14.1965 -12.2970 -10.6467 -10.3198
    -9.6769  -9.6146  -8.4944  -7.7090  -7.6187  -5.8056  -5.7466

!    total energy              =     -75.35242053 Ry
     Harris-Foulkes estimate   =     -75.35242086 Ry
     estimated scf accuracy    <       0.00000048 Ry

     convergence has been achieved in   4 iterations

     Forces acting on atoms (Ry/au):

     atom    1 type  1   force =     0.01441497    0.00760589   -0.00228170
     atom    2 type  2   force =    -0.00230291    0.00696478   -0.00426000
     atom    3 type  1   force =    -0.01989915   -0.00657858    0.00561153
     atom    4 type  2   force =     0.00748777    0.00337252    0.00037848
     atom    5 type  1   force =     0.02021059    0.00530016    0.00095307
     atom    6 type  2   force =    -0.00636037    0.00456965   -0.00029606
     atom    7 type  1   force =     0.01803548   -0.02558959   -0.01445790
     atom    8 type  2   force =    -0.00766020   -0.00219431    0.00406241
     atom    9 type  1   force =    -0.01661903    0.01304875   -0.00696819
     atom   10 type  2   force =    -0.01033985   -0.00414826    0.00952684
     atom   11 type  1   force =     0.00062797    0.00605012    0.00739016
     atom   12 type  2   force =     0.00248409   -0.00832169    0.00039895

     Total force =     0.059382     Total SCF correction =     0.001217

     Entering Dynamics:    iteration =    98
                           time      =   0.0948 pico-seconds


ATOMIC_POSITIONS (angstrom)
C        6.547106745   5.552631632   4.750206679
H        7.559634913   5.717040078   4.364229637
C        5.816628108   6.592368807   5.332464291
H        6.190605503   7.617994289   5.357391811
C        4.542336137   6.323068037   5.876095956
H        3.994430173   7.135959490   6.354746632
C        4.025031617   5.031728042   5.861156185
H        3.047485624   4.829585609   6.300719410
C        4.780689567   3.992548078   5.269307644
H        4.398020182   2.977488990   5.148931851
C        6.014889139   4.261335676   4.690523142
H        6.592808054   3.484921689   4.186523528


     kinetic energy (Ekin) =     0.00618443 Ry
     temperature           =    59.17840262 K 
     Ekin + Etot (const)   =   -75.34623610 Ry
     Message from routine dynamics:
     Total linear momentum <> 0

     Linear momentum :   -0.1671118143   -0.2151870545    0.1546822726
     Check: negative starting charge=   -0.001497
     NEW-OLD atomic charge density approx. for the potential
     Check: negative starting charge=   -0.001496

     negative rho (up, down):  0.919E-02 0.000E+00

     total cpu time spent up to now is      356.7 secs

     per-process dynamical memory:    19.1 Mb

     Self-consistent Calculation

     iteration #  1     ecut=    25.00 Ry     beta=0.70
     Davidson diagonalization with overlap
     ethr =  1.00E-06,  avg # of iterations =  4.0

     negative rho (up, down):  0.919E-02 0.000E+00

     total cpu time spent up to now is      357.4 secs

     total energy              =     -75.35219652 Ry
     Harris-Foulkes estimate   =     -75.35223108 Ry
     estimated scf accuracy    <       0.00010581 Ry

     iteration #  2     ecut=    25.00 Ry     beta=0.70
     Davidson diagonalization with overlap
     ethr =  3.53E-07,  avg # of iterations =  3.0

     negative rho (up, down):  0.920E-02 0.000E+00

     total cpu time spent up to now is      358.0 secs

     total energy              =     -75.35220384 Ry
     Harris-Foulkes estimate   =     -75.35222144 Ry
     estimated scf accuracy    <       0.00003095 Ry

     iteration #  3     ecut=    25.00 Ry     beta=0.70
     Davidson diagonalization with overlap
     ethr =  1.03E-07,  avg # of iterations =  4.0

     negative rho (up, down):  0.920E-02 0.000E+00

     total cpu time spent up to now is      358.6 secs

     total energy              =     -75.35221163 Ry
     Harris-Foulkes estimate   =     -75.35221897 Ry
     estimated scf accuracy    <       0.00001685 Ry

     iteration #  4     ecut=    25.00 Ry     beta=0.70
     Davidson diagonalization with overlap
     ethr =  5.62E-08,  avg # of iterations =  3.0

     negative rho (up, down):  0.921E-02 0.000E+00

     total cpu time spent up to now is      359.1 secs

     End of self-consistent calculation

          k = 0.0000 0.0000 0.0000 (  8440 PWs)   bands (ev):

   -20.6342 -17.9115 -17.8208 -14.3219 -14.1801 -12.2851 -10.6266 -10.3241
    -9.6636  -9.6108  -8.4995  -7.6962  -7.6145  -5.8053  -5.7531

!    total energy              =     -75.35221489 Ry
     Harris-Foulkes estimate   =     -75.35221536 Ry
     estimated scf accuracy    <       0.00000064 Ry

     convergence has been achieved in   4 iterations

     Forces acting on atoms (Ry/au):

     atom    1 type  1   force =     0.01184344    0.00821574    0.00080192
     atom    2 type  2   force =    -0.00412496    0.00647606   -0.00360641
     atom    3 type  1   force =    -0.01707572   -0.00723346    0.00263233
     atom    4 type  2   force =     0.00646764   -0.00033962    0.00052286
     atom    5 type  1   force =     0.02007154    0.01046196    0.00123047
     atom    6 type  2   force =    -0.00590007    0.00193215   -0.00094198
     atom    7 type  1   force =     0.01220865   -0.02264794   -0.00838738
     atom    8 type  2   force =    -0.00262588   -0.00281043    0.00066960
     atom    9 type  1   force =    -0.02001773    0.00378277   -0.01003173
     atom   10 type  2   force =    -0.01029544   -0.00139754    0.01163755
     atom   11 type  1   force =     0.01134867    0.01023236    0.00316132
     atom   12 type  2   force =    -0.00181359   -0.00658509    0.00234646

     Total force =     0.055036     Total SCF correction =     0.001372

     Entering Dynamics:    iteration =    99
                           time      =   0.0958 pico-seconds


ATOMIC_POSITIONS (angstrom)
C        6.547188802   5.553333774   4.747163003
H        7.558965134   5.719349140   4.357896582
C        5.815028621   6.592770832   5.334240494
H        6.186316036   7.623365328   5.356281861
C        4.542531635   6.318665892   5.878231806
H        3.994793939   7.136147903   6.356319234
C        4.022758220   5.028192818   5.858284006
H        3.040844789   4.833135899   6.305555366
C        4.780890252   3.992700659   5.271788248
H        4.399253794   2.974454912   5.140511372
C        6.013596583   4.259530137   4.694715504
H        6.603739761   3.483604877   4.194182919


     kinetic energy (Ekin) =     0.00588767 Ry
     temperature           =    56.33867647 K 
     Ekin + Etot (const)   =   -75.34632723 Ry
     Message from routine dynamics:
     Total linear momentum <> 0

     Linear momentum :   -0.1191818933   -0.2040898131    0.1168350022
     Check: negative starting charge=   -0.001496
     NEW-OLD atomic charge density approx. for the potential
     Check: negative starting charge=   -0.001494

     negative rho (up, down):  0.916E-02 0.000E+00

     total cpu time spent up to now is      360.3 secs

     per-process dynamical memory:    19.1 Mb

     Self-consistent Calculation

     iteration #  1     ecut=    25.00 Ry     beta=0.70
     Davidson diagonalization with overlap
     ethr =  1.00E-06,  avg # of iterations =  4.0

     negative rho (up, down):  0.916E-02 0.000E+00

     total cpu time spent up to now is      360.9 secs

     total energy              =     -75.35183867 Ry
     Harris-Foulkes estimate   =     -75.35187519 Ry
     estimated scf accuracy    <       0.00010621 Ry

     iteration #  2     ecut=    25.00 Ry     beta=0.70
     Davidson diagonalization with overlap
     ethr =  3.54E-07,  avg # of iterations =  3.0

     negative rho (up, down):  0.917E-02 0.000E+00

     total cpu time spent up to now is      361.8 secs

     total energy              =     -75.35185622 Ry
     Harris-Foulkes estimate   =     -75.35186365 Ry
     estimated scf accuracy    <       0.00001486 Ry

     iteration #  3     ecut=    25.00 Ry     beta=0.70
     Davidson diagonalization with overlap
     ethr =  4.95E-08,  avg # of iterations =  3.0

     negative rho (up, down):  0.918E-02 0.000E+00

     total cpu time spent up to now is      362.5 secs

     total energy              =     -75.35185936 Ry
     Harris-Foulkes estimate   =     -75.35186278 Ry
     estimated scf accuracy    <       0.00000725 Ry

     iteration #  4     ecut=    25.00 Ry     beta=0.70
     Davidson diagonalization with overlap
     ethr =  2.42E-08,  avg # of iterations =  3.0

     negative rho (up, down):  0.918E-02 0.000E+00

     total cpu time spent up to now is      363.0 secs

     End of self-consistent calculation

          k = 0.0000 0.0000 0.0000 (  8440 PWs)   bands (ev):

   -20.6388 -17.9048 -17.8227 -14.3193 -14.1648 -12.2710 -10.6020 -10.3311
    -9.6477  -9.6062  -8.5061  -7.6850  -7.6070  -5.8051  -5.7616

!    total energy              =     -75.35186078 Ry
     Harris-Foulkes estimate   =     -75.35186132 Ry
     estimated scf accuracy    <       0.00000068 Ry

     convergence has been achieved in   4 iterations

     Forces acting on atoms (Ry/au):

     atom    1 type  1   force =     0.00810392    0.00821704    0.00398437
     atom    2 type  2   force =    -0.00512087    0.00590653   -0.00313885
     atom    3 type  1   force =    -0.01302844   -0.00680202   -0.00052449
     atom    4 type  2   force =     0.00493816   -0.00465603    0.00070634
     atom    5 type  1   force =     0.01805061    0.01550203    0.00222431
     atom    6 type  2   force =    -0.00465854   -0.00156933   -0.00206399
     atom    7 type  1   force =     0.00491730   -0.01827727   -0.00144950
     atom    8 type  2   force =     0.00366702   -0.00313828   -0.00330896
     atom    9 type  1   force =    -0.02315466   -0.00691770   -0.01310536
     atom   10 type  2   force =    -0.00928527    0.00258905    0.01347117
     atom   11 type  1   force =     0.02216988    0.01284903   -0.00152198
     atom   12 type  2   force =    -0.00655447   -0.00371799    0.00468893

     Total force =     0.056963     Total SCF correction =     0.001460

     Entering Dynamics:    iteration =   100
                           time      =   0.0968 pico-seconds


ATOMIC_POSITIONS (angstrom)
C        6.547760655   5.554355150   4.743946248
H        7.557335420   5.723122326   4.350737854
C        5.813469862   6.593136222   5.335759624
H        6.183491139   7.627587954   5.355106633
C        4.543416265   6.314706845   5.880176966
H        3.994514464   7.136149371   6.357260125
C        4.020896992   5.024413275   5.855136039
H        3.035215710   4.835948107   6.309375199
C        4.780915573   3.992866177   5.273747639
H        4.398858406   2.971757046   5.135278325
C        6.013070425   4.258144930   4.698620289
H        6.613439497   3.481197127   4.202857942


     kinetic energy (Ekin) =     0.00545765 Ry
     temperature           =    52.22382385 K 
     Ekin + Etot (const)   =   -75.34640313 Ry
     Message from routine dynamics:
     Total linear momentum <> 0

     Linear momentum :   -0.0660188971   -0.1833998387    0.0763493447
     Check: negative starting charge=   -0.001494
     NEW-OLD atomic charge density approx. for the potential
     Check: negative starting charge=   -0.001491

     negative rho (up, down):  0.914E-02 0.000E+00

     total cpu time spent up to now is      364.3 secs

     per-process dynamical memory:    19.1 Mb

     Self-consistent Calculation

     iteration #  1     ecut=    25.00 Ry     beta=0.70
     Davidson diagonalization with overlap
     ethr =  1.00E-06,  avg # of iterations =  4.0

     negative rho (up, down):  0.914E-02 0.000E+00

     total cpu time spent up to now is      364.9 secs

     total energy              =     -75.35139673 Ry
     Harris-Foulkes estimate   =     -75.35144088 Ry
     estimated scf accuracy    <       0.00010817 Ry

     iteration #  2     ecut=    25.00 Ry     beta=0.70
     Davidson diagonalization with overlap
     ethr =  3.61E-07,  avg # of iterations =  3.0

     negative rho (up, down):  0.915E-02 0.000E+00

     total cpu time spent up to now is      365.6 secs

     total energy              =     -75.35140498 Ry
     Harris-Foulkes estimate   =     -75.35142698 Ry
     estimated scf accuracy    <       0.00003827 Ry

     iteration #  3     ecut=    25.00 Ry     beta=0.70
     Davidson diagonalization with overlap
     ethr =  1.28E-07,  avg # of iterations =  4.0

     negative rho (up, down):  0.915E-02 0.000E+00

     total cpu time spent up to now is      366.2 secs

     total energy              =     -75.35141513 Ry
     Harris-Foulkes estimate   =     -75.35142156 Ry
     estimated scf accuracy    <       0.00001466 Ry

     iteration #  4     ecut=    25.00 Ry     beta=0.70
     Davidson diagonalization with overlap
     ethr =  4.89E-08,  avg # of iterations =  3.0

     negative rho (up, down):  0.915E-02 0.000E+00

     total cpu time spent up to now is      366.7 secs

     End of self-consistent calculation

          k = 0.0000 0.0000 0.0000 (  8440 PWs)   bands (ev):

   -20.6414 -17.8946 -17.8263 -14.3147 -14.1526 -12.2583 -10.5807 -10.3372
    -9.6325  -9.6014  -8.5109  -7.6792  -7.5955  -5.8021  -5.7697

!    total energy              =     -75.35141795 Ry
     Harris-Foulkes estimate   =     -75.35141840 Ry
     estimated scf accuracy    <       0.00000063 Ry

     convergence has been achieved in   4 iterations

     Forces acting on atoms (Ry/au):

     atom    1 type  1   force =     0.00337386    0.00758866    0.00721965
     atom    2 type  2   force =    -0.00499999    0.00534049   -0.00297287
     atom    3 type  1   force =    -0.00861610   -0.00636290   -0.00365555
     atom    4 type  2   force =     0.00344697   -0.00809376    0.00094940
     atom    5 type  1   force =     0.01482189    0.01938496    0.00334285
     atom    6 type  2   force =    -0.00321201   -0.00490906   -0.00312630
     atom    7 type  1   force =    -0.00120448   -0.01258825    0.00504964
     atom    8 type  2   force =     0.00893103   -0.00354569   -0.00677997
     atom    9 type  1   force =    -0.02523569   -0.01677779   -0.01585448
     atom   10 type  2   force =    -0.00782475    0.00633627    0.01479766
     atom   11 type  1   force =     0.03112763    0.01479785   -0.00544472
     atom   12 type  2   force =    -0.01048995   -0.00111019    0.00645590

     Total force =     0.064999     Total SCF correction =     0.001331

     The maximum number of steps has been reached.

     End of molecular dynamics calculation

     diffusion coefficients :
     atom     1   D =       0.00000071 cm^2/s
     atom     2   D =       0.00000074 cm^2/s
     atom     3   D =       0.00000159 cm^2/s
     atom     4   D =       0.00000420 cm^2/s
     atom     5   D =       0.00000140 cm^2/s
     atom     6   D =       0.00000184 cm^2/s
     atom     7   D =       0.00000062 cm^2/s
     atom     8   D =       0.00000091 cm^2/s
     atom     9   D =       0.00000104 cm^2/s
     atom    10   D =       0.00000609 cm^2/s
     atom    11   D =       0.00000101 cm^2/s
     atom    12   D =       0.00000404 cm^2/s

     < D > =       0.00000202 cm^2/s

     Entering Dynamics:    iteration =   101
                           time      =   0.0977 pico-seconds


ATOMIC_POSITIONS (angstrom)
C        6.548702067   5.555719026   4.740628272
H        7.554743505   5.728261454   4.342797364
C        5.812021049   6.593511418   5.336961043
H        6.181724758   7.629800526   5.353944056
C        4.544900059   6.311309273   5.881959691
H        3.993934927   7.135159468   6.357300242
C        4.019295384   5.020542780   5.851852832
H        3.031903850   4.837962541   6.311311034
C        4.780698202   3.992873718   5.275132687
H        4.397181737   2.970377503   5.133572112
C        6.013475902   4.257255562   4.702159174
H        6.620886036   3.478405834   4.213000528


     kinetic energy (Ekin) =     0.00496121 Ry
     temperature           =    47.47344163 K 
     Ekin + Etot (const)   =   -75.34645674 Ry
     Message from routine dynamics:
     Total linear momentum <> 0

     Linear momentum :   -0.0166841408   -0.1566395497    0.0366340261

     init_run     :      0.75s CPU      0.83s WALL (       1 calls)
     electrons    :    229.69s CPU    248.74s WALL (     101 calls)
     update_pot   :     45.04s CPU     50.21s WALL (     100 calls)
     forces       :     35.94s CPU     38.47s WALL (     101 calls)

     Called by init_run:
     wfcinit      :      0.05s CPU      0.06s WALL (       1 calls)
     potinit      :      0.27s CPU      0.31s WALL (       1 calls)

     Called by electrons:
     c_bands      :     41.46s CPU     43.06s WALL (     411 calls)
     sum_band     :     53.61s CPU     56.11s WALL (     411 calls)
     v_of_rho     :     78.05s CPU     86.49s WALL (     511 calls)
     newd         :     41.43s CPU     43.09s WALL (     511 calls)
     mix_rho      :      7.10s CPU      7.73s WALL (     411 calls)

     Called by c_bands:
     init_us_2    :      0.38s CPU      0.41s WALL (     823 calls)
     regterg      :     40.68s CPU     42.19s WALL (     411 calls)

     Called by *egterg:
     h_psi        :     32.21s CPU     33.38s WALL (    1813 calls)
     s_psi        :      1.88s CPU      1.91s WALL (    1813 calls)
     g_psi        :      0.16s CPU      0.16s WALL (    1401 calls)
     rdiaghg      :      1.34s CPU      1.37s WALL (    1711 calls)

     Called by h_psi:
     add_vuspsi   :      1.87s CPU      1.92s WALL (    1813 calls)

     General routines
     calbec       :      3.47s CPU      3.71s WALL (    2628 calls)
     fft          :     70.50s CPU     82.89s WALL (    8078 calls)
     ffts         :      1.33s CPU      1.48s WALL (     922 calls)
     fftw         :     21.61s CPU     22.40s WALL (   24266 calls)
     interpolate  :     10.61s CPU     11.60s WALL (     922 calls)

     Parallel routines
     fft_scatter  :     45.21s CPU     57.91s WALL (   33266 calls)

     PWSCF        :  5m22.04s CPU     6m 7.08s WALL


   This run was terminated on:  17:10:57  24Feb2015            

=------------------------------------------------------------------------------=
   JOB DONE.
=------------------------------------------------------------------------------=
