
     Program PWSCF v.5.0.2 (svn rev. 9392) starts on 11Feb2015 at 18:35:59 

     This program is part of the open-source Quantum ESPRESSO suite
     for quantum simulation of materials; please cite
         "P. Giannozzi et al., J. Phys.:Condens. Matter 21 395502 (2009);
          URL http://www.quantum-espresso.org", 
     in publications or presentations arising from this work. More details at
     http://www.quantum-espresso.org/quote.php

     Parallel version (MPI), running on    20 processors
     R & G space division:  proc/nbgrp/npool/nimage =      20

     Current dimensions of program PWSCF are:
     Max number of different atomic species (ntypx) = 10
     Max number of k-points (npk) =  40000
     Max angular momentum in pseudopotentials (lmaxx) =  3
     Waiting for input...
     Reading input from standard input

     gamma-point specific algorithms are used
 XXXXXXXXXX EC SUPPORT ENABLED XXXXXXXXXX

     Subspace diagonalization in iterative solution of the eigenvalue problem:
     a serial algorithm will be used


     Parallelization info
     --------------------
     sticks:   dense  smooth     PW     G-vecs:    dense   smooth      PW
     Min         344     136     33                21604     5436     674
     Max         346     138     36                21610     5470     686
     Sum        6909    2757    681               432145   109127   13613
     Tot        3455    1379    341


     Title: 
     QMMM                                                                       


     bravais-lattice index     =            1
     lattice parameter (alat)  =      18.6422  a.u.
     unit-cell volume          =    6478.7077 (a.u.)^3
     number of atoms/cell      =            3
     number of atomic types    =            2
     number of electrons       =         8.00
     number of Kohn-Sham states=            4
     kinetic-energy cutoff     =      25.0000  Ry
     charge density cutoff     =     250.0000  Ry
     convergence threshold     =      1.0E-06
     mixing beta               =       0.7000
     number of iterations used =            8  plain     mixing
     Exchange-correlation      =  SLA  PW   PBE  PBE ( 1 4 3 4 0)
     EXX-fraction              =        0.00
     nstep                     =          200


     celldm(1)=  18.642156  celldm(2)=   0.000000  celldm(3)=   0.000000
     celldm(4)=   0.000000  celldm(5)=   0.000000  celldm(6)=   0.000000

     crystal axes: (cart. coord. in units of alat)
               a(1) = (   1.000000   0.000000   0.000000 )  
               a(2) = (   0.000000   1.000000   0.000000 )  
               a(3) = (   0.000000   0.000000   1.000000 )  

     reciprocal axes: (cart. coord. in units 2 pi/alat)
               b(1) = (  1.000000  0.000000  0.000000 )  
               b(2) = (  0.000000  1.000000  0.000000 )  
               b(3) = (  0.000000  0.000000  1.000000 )  


     PseudoPot. # 1 for O  read from file:
     pseudo/O.pbe-van_bm.UPF
     MD5 check sum: ca2828d9fb1f294809e918903b7648d1
     Pseudo is Ultrasoft, Zval =  6.0
     Generated by new atomic code, or converted to UPF format
     Using radial grid of  737 points,  4 beta functions with: 
                l(1) =   0
                l(2) =   0
                l(3) =   1
                l(4) =   1
     Q(r) pseudized with  8 coefficients,  rinner =    0.800   0.800   0.800


     PseudoPot. # 2 for H  read from file:
     pseudo/H.pbe-van_ak.UPF
     MD5 check sum: 077eb6d537518a38cb46c6de387227b7
     Pseudo is Ultrasoft, Zval =  1.0
     Generated by new atomic code, or converted to UPF format
     Using radial grid of  615 points,  1 beta functions with: 
                l(1) =   0
     Q(r) pseudized with  8 coefficients,  rinner =    0.800

     atomic species   valence    mass     pseudopotential
        O              6.00    16.00000     O ( 1.00)
        H              1.00     1.00000     H ( 1.00)

     No symmetry found



   Cartesian axes

     site n.     atom                  positions (alat units)
         1           O   tau(   1) = (   0.5317997   0.4942128   0.5297931  )
         2           H   tau(   2) = (   0.4307598   0.4924671   0.5408002  )
         3           H   tau(   3) = (   0.5374405   0.5133201   0.4294068  )

     number of k points=     1
                       cart. coord. in units 2pi/alat
        k(    1) = (   0.0000000   0.0000000   0.0000000), wk =   2.0000000

     Dense  grid:   216073 G-vectors     FFT dimensions: (  96,  96,  96)

     Smooth grid:    54564 G-vectors     FFT dimensions: (  60,  60,  60)

     Largest allocated arrays     est. size (Mb)     dimensions
        Kohn-Sham Wavefunctions         0.02 Mb     (    339,    4)
        NL pseudopotentials             0.05 Mb     (    339,   10)
        Each V/rho on FFT grid          0.70 Mb     (  46080)
        Each G-vector array             0.08 Mb     (  10805)
        G-vector shells                 0.01 Mb     (   1570)
     Largest temporary arrays     est. size (Mb)     dimensions
        Auxiliary wavefunctions         0.04 Mb     (    339,   16)
        Each subspace H/S matrix        0.00 Mb     (  16,  16)
        Each <psi_i|beta_j> matrix      0.00 Mb     (     10,    4)
        Arrays for rho mixing           5.63 Mb     (  46080,   8)
 ****** END OF ADD_ESF COMPUTATION ******

     Initial potential from superposition of free atoms
     Check: negative starting charge=   -0.004447

     starting charge    7.99998, renormalised to    8.00000

     negative rho (up, down):  0.445E-02 0.000E+00
     Starting wfc are    6 randomized atomic wfcs

     total cpu time spent up to now is        0.9 secs

     per-process dynamical memory:    14.8 Mb

     Self-consistent Calculation

     iteration #  1     ecut=    25.00 Ry     beta=0.70
     Davidson diagonalization with overlap
     ethr =  1.00E-02,  avg # of iterations =  2.0

     negative rho (up, down):  0.239E-02 0.000E+00

     total cpu time spent up to now is        1.2 secs

     total energy              =     -34.58594554 Ry
     Harris-Foulkes estimate   =     -34.92450626 Ry
     estimated scf accuracy    <       0.46503079 Ry

     iteration #  2     ecut=    25.00 Ry     beta=0.70
     Davidson diagonalization with overlap
     ethr =  5.81E-03,  avg # of iterations =  3.0

     negative rho (up, down):  0.716E-02 0.000E+00

     total cpu time spent up to now is        1.5 secs

     total energy              =     -34.67149211 Ry
     Harris-Foulkes estimate   =     -34.93496470 Ry
     estimated scf accuracy    <       0.57426786 Ry

     iteration #  3     ecut=    25.00 Ry     beta=0.70
     Davidson diagonalization with overlap
     ethr =  5.81E-03,  avg # of iterations =  2.0

     negative rho (up, down):  0.472E-02 0.000E+00

     total cpu time spent up to now is        1.8 secs

     total energy              =     -34.78610561 Ry
     Harris-Foulkes estimate   =     -34.78824586 Ry
     estimated scf accuracy    <       0.00530214 Ry

     iteration #  4     ecut=    25.00 Ry     beta=0.70
     Davidson diagonalization with overlap
     ethr =  6.63E-05,  avg # of iterations =  2.0

     negative rho (up, down):  0.470E-02 0.000E+00

     total cpu time spent up to now is        2.1 secs

     total energy              =     -34.78769815 Ry
     Harris-Foulkes estimate   =     -34.78787101 Ry
     estimated scf accuracy    <       0.00044613 Ry

     iteration #  5     ecut=    25.00 Ry     beta=0.70
     Davidson diagonalization with overlap
     ethr =  5.58E-06,  avg # of iterations =  1.0

     negative rho (up, down):  0.479E-02 0.000E+00

     total cpu time spent up to now is        2.4 secs

     total energy              =     -34.78769861 Ry
     Harris-Foulkes estimate   =     -34.78772456 Ry
     estimated scf accuracy    <       0.00007283 Ry

     iteration #  6     ecut=    25.00 Ry     beta=0.70
     Davidson diagonalization with overlap
     ethr =  9.10E-07,  avg # of iterations =  2.0

     negative rho (up, down):  0.486E-02 0.000E+00

     total cpu time spent up to now is        2.7 secs

     total energy              =     -34.78770753 Ry
     Harris-Foulkes estimate   =     -34.78770752 Ry
     estimated scf accuracy    <       0.00000184 Ry

     iteration #  7     ecut=    25.00 Ry     beta=0.70
     Davidson diagonalization with overlap
     ethr =  2.30E-08,  avg # of iterations =  2.0

     negative rho (up, down):  0.487E-02 0.000E+00

     total cpu time spent up to now is        2.9 secs

     End of self-consistent calculation

          k = 0.0000 0.0000 0.0000 (  6807 PWs)   bands (ev):

   -25.5074 -12.8124 -10.0150  -7.7858

!    total energy              =     -34.78770771 Ry
     Harris-Foulkes estimate   =     -34.78770784 Ry
     estimated scf accuracy    <       0.00000023 Ry

     convergence has been achieved in   7 iterations

     Forces acting on atoms (Ry/au):

     atom    1 type  1   force =    -0.02989503   -0.05821455    0.19581351
     atom    2 type  2   force =     0.07040065   -0.00145953    0.01869370
     atom    3 type  2   force =     0.00699277   -0.01396572    0.08467081

     Total force =     0.235258     Total SCF correction =     0.000897

     Molecular Dynamics Calculation
     mass O                =    16.00
     mass H                =     1.00
     Time step             =    20.00 a.u.,  0.9676 femto-seconds

     Entering Dynamics:    iteration =     1
                           time      =   0.0010 pico-seconds


ATOMIC_POSITIONS (angstrom)
O        5.245682904   4.875463510   5.225901704
H        4.257315675   4.858495518   5.335236289
H        5.302357854   5.062758319   4.244001445


     kinetic energy (Ekin) =     0.00000000 Ry
     temperature           =     0.00000000 K 
     Ekin + Etot (const)   =   -34.78770771 Ry

     Linear momentum :    0.0000000000    0.0000000000    0.0000000000

     Writing output data file ms2.save
 ****** END OF FORCE_ESF COMPUTATION ******
     Check: negative starting charge=   -0.004447
     NEW-OLD atomic charge density approx. for the potential
     Check: negative starting charge=   -0.004447

     negative rho (up, down):  0.478E-02 0.000E+00
 ****** END OF ADD_ESF COMPUTATION ******

     total cpu time spent up to now is        4.8 secs

     per-process dynamical memory:    16.9 Mb

     Self-consistent Calculation

     iteration #  1     ecut=    25.00 Ry     beta=0.70
     Davidson diagonalization with overlap
     ethr =  1.00E-06,  avg # of iterations =  3.0

     negative rho (up, down):  0.485E-02 0.000E+00

     total cpu time spent up to now is        5.1 secs

     total energy              =     -34.80443159 Ry
     Harris-Foulkes estimate   =     -34.80445000 Ry
     estimated scf accuracy    <       0.00003286 Ry

     iteration #  2     ecut=    25.00 Ry     beta=0.70
     Davidson diagonalization with overlap
     ethr =  4.11E-07,  avg # of iterations =  2.0

     negative rho (up, down):  0.487E-02 0.000E+00

     total cpu time spent up to now is        5.4 secs

     total energy              =     -34.80443668 Ry
     Harris-Foulkes estimate   =     -34.80443758 Ry
     estimated scf accuracy    <       0.00000168 Ry

     iteration #  3     ecut=    25.00 Ry     beta=0.70
     Davidson diagonalization with overlap
     ethr =  2.10E-08,  avg # of iterations =  2.0

     negative rho (up, down):  0.488E-02 0.000E+00

     total cpu time spent up to now is        5.7 secs

     total energy              =     -34.80443705 Ry
     Harris-Foulkes estimate   =     -34.80443753 Ry
     estimated scf accuracy    <       0.00000102 Ry

     iteration #  4     ecut=    25.00 Ry     beta=0.70
     Davidson diagonalization with overlap
     ethr =  1.27E-08,  avg # of iterations =  2.0

     negative rho (up, down):  0.488E-02 0.000E+00

     total cpu time spent up to now is        5.9 secs

     End of self-consistent calculation

          k = 0.0000 0.0000 0.0000 (  6807 PWs)   bands (ev):

   -25.5852 -12.9059 -10.0455  -7.8292

!    total energy              =     -34.80443728 Ry
     Harris-Foulkes estimate   =     -34.80443728 Ry
     estimated scf accuracy    <       0.00000002 Ry

     convergence has been achieved in   4 iterations

     Forces acting on atoms (Ry/au):

     atom    1 type  1   force =    -0.03042173   -0.03853189    0.19261059
     atom    2 type  2   force =     0.06535364    0.00009832    0.01898215
     atom    3 type  2   force =     0.00685525   -0.01064207    0.07705863

     Total force =     0.224140     Total SCF correction =     0.000058

     Entering Dynamics:    iteration =     2
                           time      =   0.0019 pico-seconds


ATOMIC_POSITIONS (angstrom)
O        5.243258268   4.876038345   5.223473378
H        4.267550885   4.858248419   5.335625894
H        5.305622908   5.060924581   4.256638342


     kinetic energy (Ekin) =     0.00107457 Ry
     temperature           =    56.55362773 K 
     Ekin + Etot (const)   =   -34.80336271 Ry
     Message from routine dynamics:
     Total linear momentum <> 0

     Linear momentum :   -0.0584236655    0.0164376794   -0.0596543373

     Writing output data file ms2.save
 ****** END OF FORCE_ESF COMPUTATION ******
     Check: negative starting charge=   -0.004447
     NEW-OLD atomic charge density approx. for the potential
     Check: negative starting charge=   -0.004445

     negative rho (up, down):  0.468E-02 0.000E+00
 ****** END OF ADD_ESF COMPUTATION ******

     total cpu time spent up to now is        7.7 secs

     per-process dynamical memory:    16.9 Mb

     Self-consistent Calculation

     iteration #  1     ecut=    25.00 Ry     beta=0.70
     Davidson diagonalization with overlap
     ethr =  1.00E-06,  avg # of iterations =  3.0

     negative rho (up, down):  0.485E-02 0.000E+00

     total cpu time spent up to now is        8.0 secs

     total energy              =     -34.80457794 Ry
     Harris-Foulkes estimate   =     -34.80470467 Ry
     estimated scf accuracy    <       0.00018597 Ry

     iteration #  2     ecut=    25.00 Ry     beta=0.70
     Davidson diagonalization with overlap
     ethr =  2.32E-06,  avg # of iterations =  3.0

     negative rho (up, down):  0.490E-02 0.000E+00

     total cpu time spent up to now is        8.3 secs

     total energy              =     -34.80461498 Ry
     Harris-Foulkes estimate   =     -34.80470441 Ry
     estimated scf accuracy    <       0.00018536 Ry

     iteration #  3     ecut=    25.00 Ry     beta=0.70
     Davidson diagonalization with overlap
     ethr =  2.32E-06,  avg # of iterations =  2.0

     negative rho (up, down):  0.492E-02 0.000E+00

     total cpu time spent up to now is        8.6 secs

     total energy              =     -34.80465353 Ry
     Harris-Foulkes estimate   =     -34.80465356 Ry
     estimated scf accuracy    <       0.00000120 Ry

     iteration #  4     ecut=    25.00 Ry     beta=0.70
     Davidson diagonalization with overlap
     ethr =  1.50E-08,  avg # of iterations =  2.0

     negative rho (up, down):  0.494E-02 0.000E+00

     total cpu time spent up to now is        8.8 secs

     End of self-consistent calculation

          k = 0.0000 0.0000 0.0000 (  6807 PWs)   bands (ev):

   -25.6705 -13.0179 -10.0318  -7.8468

!    total energy              =     -34.80465411 Ry
     Harris-Foulkes estimate   =     -34.80465416 Ry
     estimated scf accuracy    <       0.00000010 Ry

     convergence has been achieved in   4 iterations

     Forces acting on atoms (Ry/au):

     atom    1 type  1   force =    -0.01992973   -0.04147443    0.20841063
     atom    2 type  2   force =     0.05516437    0.00014686    0.01934108
     atom    3 type  2   force =     0.00702914   -0.00753391    0.06066130

     Total force =     0.229686     Total SCF correction =     0.000865

     Entering Dynamics:    iteration =     3
                           time      =   0.0029 pico-seconds


ATOMIC_POSITIONS (angstrom)
O        5.238183795   4.877647189   5.218526273
H        4.271871201   4.856757558   5.334904083
H        5.311758579   5.058960379   4.266230540


     kinetic energy (Ekin) =     0.00267644 Ry
     temperature           =   140.85881845 K 
     Ekin + Etot (const)   =   -34.80197767 Ry
     Message from routine dynamics:
     Total linear momentum <> 0

     Linear momentum :   -0.1633844830    0.0514770532   -0.1623397598

     Writing output data file ms2.save
 ****** END OF FORCE_ESF COMPUTATION ******
     Check: negative starting charge=   -0.004445
     NEW-OLD atomic charge density approx. for the potential
     Check: negative starting charge=   -0.004439

     negative rho (up, down):  0.469E-02 0.000E+00
 ****** END OF ADD_ESF COMPUTATION ******

     total cpu time spent up to now is       10.6 secs

     per-process dynamical memory:    16.9 Mb

     Self-consistent Calculation

     iteration #  1     ecut=    25.00 Ry     beta=0.70
     Davidson diagonalization with overlap
     ethr =  1.00E-06,  avg # of iterations =  4.0

     negative rho (up, down):  0.488E-02 0.000E+00

     total cpu time spent up to now is       10.9 secs

     total energy              =     -34.80317507 Ry
     Harris-Foulkes estimate   =     -34.80337782 Ry
     estimated scf accuracy    <       0.00030135 Ry

     iteration #  2     ecut=    25.00 Ry     beta=0.70
     Davidson diagonalization with overlap
     ethr =  3.77E-06,  avg # of iterations =  3.0

     negative rho (up, down):  0.496E-02 0.000E+00

     total cpu time spent up to now is       11.2 secs

     total energy              =     -34.80323492 Ry
     Harris-Foulkes estimate   =     -34.80337239 Ry
     estimated scf accuracy    <       0.00028223 Ry

     iteration #  3     ecut=    25.00 Ry     beta=0.70
     Davidson diagonalization with overlap
     ethr =  3.53E-06,  avg # of iterations =  2.0

     negative rho (up, down):  0.499E-02 0.000E+00

     total cpu time spent up to now is       11.5 secs

     total energy              =     -34.80329459 Ry
     Harris-Foulkes estimate   =     -34.80329474 Ry
     estimated scf accuracy    <       0.00000222 Ry

     iteration #  4     ecut=    25.00 Ry     beta=0.70
     Davidson diagonalization with overlap
     ethr =  2.78E-08,  avg # of iterations =  2.0

     negative rho (up, down):  0.501E-02 0.000E+00

     total cpu time spent up to now is       11.7 secs

     End of self-consistent calculation

          k = 0.0000 0.0000 0.0000 (  6807 PWs)   bands (ev):

   -25.7729 -13.1694 -10.0007  -7.8653

!    total energy              =     -34.80329551 Ry
     Harris-Foulkes estimate   =     -34.80329558 Ry
     estimated scf accuracy    <       0.00000016 Ry

     convergence has been achieved in   4 iterations

     Forces acting on atoms (Ry/au):

     atom    1 type  1   force =    -0.00566651   -0.04547893    0.23039635
     atom    2 type  2   force =     0.04179418    0.00030112    0.01926989
     atom    3 type  2   force =     0.00702766   -0.00333233    0.03833597

     Total force =     0.242552     Total SCF correction =     0.001025

     Entering Dynamics:    iteration =     4
                           time      =   0.0039 pico-seconds


ATOMIC_POSITIONS (angstrom)
O        5.231195637   4.879923645   5.212405546
H        4.272874588   4.854772615   5.334102444
H        5.320099001   5.057780120   4.272057186


     kinetic energy (Ekin) =     0.00365826 Ry
     temperature           =   192.53079480 K 
     Ekin + Etot (const)   =   -34.79963725 Ry
     Message from routine dynamics:
     Total linear momentum <> 0

     Linear momentum :   -0.2366768205    0.0768192829   -0.2145949850

     Writing output data file ms2.save
 ****** END OF FORCE_ESF COMPUTATION ******
     Check: negative starting charge=   -0.004439
     NEW-OLD atomic charge density approx. for the potential
     Check: negative starting charge=   -0.004431

     negative rho (up, down):  0.474E-02 0.000E+00
 ****** END OF ADD_ESF COMPUTATION ******

     total cpu time spent up to now is       13.6 secs

     per-process dynamical memory:    16.9 Mb

     Self-consistent Calculation

     iteration #  1     ecut=    25.00 Ry     beta=0.70
     Davidson diagonalization with overlap
     ethr =  1.00E-06,  avg # of iterations =  4.0

     negative rho (up, down):  0.493E-02 0.000E+00

     total cpu time spent up to now is       13.9 secs

     total energy              =     -34.79948377 Ry
     Harris-Foulkes estimate   =     -34.79962825 Ry
     estimated scf accuracy    <       0.00022511 Ry

     iteration #  2     ecut=    25.00 Ry     beta=0.70
     Davidson diagonalization with overlap
     ethr =  2.81E-06,  avg # of iterations =  3.0

     negative rho (up, down):  0.501E-02 0.000E+00

     total cpu time spent up to now is       14.2 secs

     total energy              =     -34.79952905 Ry
     Harris-Foulkes estimate   =     -34.79962310 Ry
     estimated scf accuracy    <       0.00019010 Ry

     iteration #  3     ecut=    25.00 Ry     beta=0.70
     Davidson diagonalization with overlap
     ethr =  2.38E-06,  avg # of iterations =  2.0

     negative rho (up, down):  0.504E-02 0.000E+00

     total cpu time spent up to now is       14.5 secs

     total energy              =     -34.79956981 Ry
     Harris-Foulkes estimate   =     -34.79956982 Ry
     estimated scf accuracy    <       0.00000179 Ry

     iteration #  4     ecut=    25.00 Ry     beta=0.70
     Davidson diagonalization with overlap
     ethr =  2.24E-08,  avg # of iterations =  2.0

     negative rho (up, down):  0.506E-02 0.000E+00

     total cpu time spent up to now is       14.7 secs

     End of self-consistent calculation

          k = 0.0000 0.0000 0.0000 (  6807 PWs)   bands (ev):

   -25.8425 -13.3139  -9.9473  -7.8749

!    total energy              =     -34.79957032 Ry
     Harris-Foulkes estimate   =     -34.79957039 Ry
     estimated scf accuracy    <       0.00000013 Ry

     convergence has been achieved in   4 iterations

     Forces acting on atoms (Ry/au):

     atom    1 type  1   force =     0.00774871   -0.04877273    0.24973673
     atom    2 type  2   force =     0.03071410    0.00071803    0.01778129
     atom    3 type  2   force =     0.00595666    0.00009977    0.01979365

     Total force =     0.257865     Total SCF correction =     0.000973

     Entering Dynamics:    iteration =     5
                           time      =   0.0048 pico-seconds


ATOMIC_POSITIONS (angstrom)
O        5.223507085   4.882486901   5.207117762
H        4.268836610   4.852023980   5.334484575
H        5.331369060   5.057930749   4.271297602


     kinetic energy (Ekin) =     0.00338801 Ry
     temperature           =   178.30781117 K 
     Ekin + Etot (const)   =   -34.79618232 Ry
     Message from routine dynamics:
     Total linear momentum <> 0

     Linear momentum :   -0.2674386689    0.0887285592   -0.1962907490

     Writing output data file ms2.save
 ****** END OF FORCE_ESF COMPUTATION ******
     Check: negative starting charge=   -0.004431
     NEW-OLD atomic charge density approx. for the potential
     Check: negative starting charge=   -0.004423

     negative rho (up, down):  0.480E-02 0.000E+00
 ****** END OF ADD_ESF COMPUTATION ******

     total cpu time spent up to now is       16.5 secs

     per-process dynamical memory:    16.9 Mb

     Self-consistent Calculation

     iteration #  1     ecut=    25.00 Ry     beta=0.70
     Davidson diagonalization with overlap
     ethr =  1.00E-06,  avg # of iterations =  4.0

     negative rho (up, down):  0.496E-02 0.000E+00

     total cpu time spent up to now is       16.8 secs

     total energy              =     -34.79364349 Ry
     Harris-Foulkes estimate   =     -34.79366637 Ry
     estimated scf accuracy    <       0.00006373 Ry

     iteration #  2     ecut=    25.00 Ry     beta=0.70
     Davidson diagonalization with overlap
     ethr =  7.97E-07,  avg # of iterations =  2.0

     negative rho (up, down):  0.504E-02 0.000E+00

     total cpu time spent up to now is       17.1 secs

     total energy              =     -34.79365160 Ry
     Harris-Foulkes estimate   =     -34.79366711 Ry
     estimated scf accuracy    <       0.00003044 Ry

     iteration #  3     ecut=    25.00 Ry     beta=0.70
     Davidson diagonalization with overlap
     ethr =  3.81E-07,  avg # of iterations =  2.0

     negative rho (up, down):  0.506E-02 0.000E+00

     total cpu time spent up to now is       17.4 secs

     total energy              =     -34.79365943 Ry
     Harris-Foulkes estimate   =     -34.79366001 Ry
     estimated scf accuracy    <       0.00000237 Ry

     iteration #  4     ecut=    25.00 Ry     beta=0.70
     Davidson diagonalization with overlap
     ethr =  2.97E-08,  avg # of iterations =  2.0

     negative rho (up, down):  0.508E-02 0.000E+00

     total cpu time spent up to now is       17.6 secs

     End of self-consistent calculation

          k = 0.0000 0.0000 0.0000 (  6807 PWs)   bands (ev):

   -25.8336 -13.4027  -9.8673  -7.8641

!    total energy              =     -34.79365983 Ry
     Harris-Foulkes estimate   =     -34.79365983 Ry
     estimated scf accuracy    <       0.00000003 Ry

     convergence has been achieved in   4 iterations

     Forces acting on atoms (Ry/au):

     atom    1 type  1   force =     0.01639723   -0.04942540    0.25655600
     atom    2 type  2   force =     0.02734189    0.00159734    0.01405549
     atom    3 type  2   force =     0.00246127    0.00073941    0.01579825

     Total force =     0.264077     Total SCF correction =     0.000250

     Entering Dynamics:    iteration =     6
                           time      =   0.0058 pico-seconds


ATOMIC_POSITIONS (angstrom)
O        5.216173621   4.885029732   5.204307311
H        4.259766532   4.848360035   5.336611572
H        5.345627938   5.059356172   4.264440943


     kinetic energy (Ekin) =     0.00271169 Ry
     temperature           =   142.71363809 K 
     Ekin + Etot (const)   =   -34.79094814 Ry
     Message from routine dynamics:
     Total linear momentum <> 0

     Linear momentum :   -0.2590353603    0.0888040194   -0.1147894143

     Writing output data file ms2.save
 ****** END OF FORCE_ESF COMPUTATION ******
     Check: negative starting charge=   -0.004423
     NEW-OLD atomic charge density approx. for the potential
     Check: negative starting charge=   -0.004419

     negative rho (up, down):  0.486E-02 0.000E+00
 ****** END OF ADD_ESF COMPUTATION ******

     total cpu time spent up to now is       19.5 secs

     per-process dynamical memory:    16.9 Mb

     Self-consistent Calculation

     iteration #  1     ecut=    25.00 Ry     beta=0.70
     Davidson diagonalization with overlap
     ethr =  1.00E-06,  avg # of iterations =  4.0

     negative rho (up, down):  0.495E-02 0.000E+00

     total cpu time spent up to now is       19.8 secs

     total energy              =     -34.78559090 Ry
     Harris-Foulkes estimate   =     -34.78560468 Ry
     estimated scf accuracy    <       0.00007002 Ry

     iteration #  2     ecut=    25.00 Ry     beta=0.70
     Davidson diagonalization with overlap
     ethr =  8.75E-07,  avg # of iterations =  2.0

     negative rho (up, down):  0.501E-02 0.000E+00

     total cpu time spent up to now is       20.1 secs

     total energy              =     -34.78559780 Ry
     Harris-Foulkes estimate   =     -34.78560746 Ry
     estimated scf accuracy    <       0.00001924 Ry

     iteration #  3     ecut=    25.00 Ry     beta=0.70
     Davidson diagonalization with overlap
     ethr =  2.40E-07,  avg # of iterations =  2.0

     negative rho (up, down):  0.503E-02 0.000E+00

     total cpu time spent up to now is       20.4 secs

     total energy              =     -34.78560311 Ry
     Harris-Foulkes estimate   =     -34.78560491 Ry
     estimated scf accuracy    <       0.00000513 Ry

     iteration #  4     ecut=    25.00 Ry     beta=0.70
     Davidson diagonalization with overlap
     ethr =  6.41E-08,  avg # of iterations =  2.0

     negative rho (up, down):  0.504E-02 0.000E+00

     total cpu time spent up to now is       20.6 secs

     End of self-consistent calculation

          k = 0.0000 0.0000 0.0000 (  6807 PWs)   bands (ev):

   -25.7411 -13.4168  -9.7699  -7.8338

!    total energy              =     -34.78560406 Ry
     Harris-Foulkes estimate   =     -34.78560406 Ry
     estimated scf accuracy    <       0.00000005 Ry

     convergence has been achieved in   4 iterations

     Forces acting on atoms (Ry/au):

     atom    1 type  1   force =     0.01881796   -0.04698205    0.24793530
     atom    2 type  2   force =     0.03337873    0.00302838    0.00821397
     atom    3 type  2   force =    -0.00413450   -0.00183911    0.02889590

     Total force =     0.257059     Total SCF correction =     0.000593

     Entering Dynamics:    iteration =     7
                           time      =   0.0068 pico-seconds


ATOMIC_POSITIONS (angstrom)
O        5.209771683   4.887464767   5.204449045
H        4.247560724   4.843902675   5.339621929
H        5.361790267   5.061411947   4.255268012


     kinetic energy (Ekin) =     0.00250955 Ry
     temperature           =   132.07558798 K 
     Ekin + Etot (const)   =   -34.78309451 Ry
     Message from routine dynamics:
     Total linear momentum <> 0

     Linear momentum :   -0.2274555852    0.0844436337   -0.0089962718

     Writing output data file ms2.save
 ****** END OF FORCE_ESF COMPUTATION ******
     Check: negative starting charge=   -0.004419
     NEW-OLD atomic charge density approx. for the potential
     Check: negative starting charge=   -0.004414

     negative rho (up, down):  0.488E-02 0.000E+00
 ****** END OF ADD_ESF COMPUTATION ******

     total cpu time spent up to now is       22.4 secs

     per-process dynamical memory:    16.9 Mb

     Self-consistent Calculation

     iteration #  1     ecut=    25.00 Ry     beta=0.70
     Davidson diagonalization with overlap
     ethr =  1.00E-06,  avg # of iterations =  4.0

     negative rho (up, down):  0.490E-02 0.000E+00

     total cpu time spent up to now is       22.7 secs

     total energy              =     -34.77481521 Ry
     Harris-Foulkes estimate   =     -34.77489899 Ry
     estimated scf accuracy    <       0.00018254 Ry

     iteration #  2     ecut=    25.00 Ry     beta=0.70
     Davidson diagonalization with overlap
     ethr =  2.28E-06,  avg # of iterations =  2.0

     negative rho (up, down):  0.495E-02 0.000E+00

     total cpu time spent up to now is       23.0 secs

     total energy              =     -34.77484201 Ry
     Harris-Foulkes estimate   =     -34.77489853 Ry
     estimated scf accuracy    <       0.00010940 Ry

     iteration #  3     ecut=    25.00 Ry     beta=0.70
     Davidson diagonalization with overlap
     ethr =  1.37E-06,  avg # of iterations =  2.0

     negative rho (up, down):  0.496E-02 0.000E+00

     total cpu time spent up to now is       23.3 secs

     total energy              =     -34.77486926 Ry
     Harris-Foulkes estimate   =     -34.77487034 Ry
     estimated scf accuracy    <       0.00000533 Ry

     iteration #  4     ecut=    25.00 Ry     beta=0.70
     Davidson diagonalization with overlap
     ethr =  6.66E-08,  avg # of iterations =  2.0

     negative rho (up, down):  0.496E-02 0.000E+00

     total cpu time spent up to now is       23.5 secs

     End of self-consistent calculation

          k = 0.0000 0.0000 0.0000 (  6807 PWs)   bands (ev):

   -25.5968 -13.3703  -9.6659  -7.7879

!    total energy              =     -34.77487017 Ry
     Harris-Foulkes estimate   =     -34.77487018 Ry
     estimated scf accuracy    <       0.00000013 Ry

     convergence has been achieved in   4 iterations

     Forces acting on atoms (Ry/au):

     atom    1 type  1   force =     0.01737369   -0.04286794    0.23131308
     atom    2 type  2   force =     0.04547914    0.00485494    0.00158354
     atom    3 type  2   force =    -0.01258596   -0.00598553    0.05052619

     Total force =     0.245941     Total SCF correction =     0.000917

     Entering Dynamics:    iteration =     8
                           time      =   0.0077 pico-seconds


ATOMIC_POSITIONS (angstrom)
O        5.204349090   4.889929904   5.206745727
H        4.235137493   4.839039199   5.341339158
H        5.377823395   5.063280424   4.248609129


     kinetic energy (Ekin) =     0.00245148 Ry
     temperature           =   129.01901702 K 
     Ekin + Etot (const)   =   -34.77241869 Ry
     Message from routine dynamics:
     Total linear momentum <> 0

     Linear momentum :   -0.1920628603    0.0841854402    0.0734635359

     Writing output data file ms2.save
 ****** END OF FORCE_ESF COMPUTATION ******
     Check: negative starting charge=   -0.004414
     NEW-OLD atomic charge density approx. for the potential
     Check: negative starting charge=   -0.004409

     negative rho (up, down):  0.487E-02 0.000E+00
 ****** END OF ADD_ESF COMPUTATION ******

     total cpu time spent up to now is       25.4 secs

     per-process dynamical memory:    16.9 Mb

     Self-consistent Calculation

     iteration #  1     ecut=    25.00 Ry     beta=0.70
     Davidson diagonalization with overlap
     ethr =  1.00E-06,  avg # of iterations =  4.0

     negative rho (up, down):  0.485E-02 0.000E+00

     total cpu time spent up to now is       25.7 secs

     total energy              =     -34.76157307 Ry
     Harris-Foulkes estimate   =     -34.76165803 Ry
     estimated scf accuracy    <       0.00017894 Ry

     iteration #  2     ecut=    25.00 Ry     beta=0.70
     Davidson diagonalization with overlap
     ethr =  2.24E-06,  avg # of iterations =  2.0

     negative rho (up, down):  0.488E-02 0.000E+00

     total cpu time spent up to now is       26.0 secs

     total energy              =     -34.76159955 Ry
     Harris-Foulkes estimate   =     -34.76165717 Ry
     estimated scf accuracy    <       0.00011205 Ry

     iteration #  3     ecut=    25.00 Ry     beta=0.70
     Davidson diagonalization with overlap
     ethr =  1.40E-06,  avg # of iterations =  2.0

     negative rho (up, down):  0.489E-02 0.000E+00

     total cpu time spent up to now is       26.2 secs

     total energy              =     -34.76162717 Ry
     Harris-Foulkes estimate   =     -34.76162818 Ry
     estimated scf accuracy    <       0.00000498 Ry

     iteration #  4     ecut=    25.00 Ry     beta=0.70
     Davidson diagonalization with overlap
     ethr =  6.23E-08,  avg # of iterations =  2.0

     negative rho (up, down):  0.489E-02 0.000E+00

     total cpu time spent up to now is       26.5 secs

     End of self-consistent calculation

          k = 0.0000 0.0000 0.0000 (  6807 PWs)   bands (ev):

   -25.4567 -13.3046  -9.5744  -7.7413

!    total energy              =     -34.76162802 Ry
     Harris-Foulkes estimate   =     -34.76162804 Ry
     estimated scf accuracy    <       0.00000013 Ry

     convergence has been achieved in   4 iterations

     Forces acting on atoms (Ry/au):

     atom    1 type  1   force =     0.01496852   -0.03879194    0.21624528
     atom    2 type  2   force =     0.05803984    0.00673201   -0.00408657
     atom    3 type  2   force =    -0.02044033   -0.00959459    0.06941014

     Total force =     0.239268     Total SCF correction =     0.000868

     Entering Dynamics:    iteration =     9
                           time      =   0.0087 pico-seconds


ATOMIC_POSITIONS (angstrom)
O        5.199628992   4.892648903   5.209827002
H        4.225232026   4.834234197   5.339244674
H        5.391515231   5.064374921   4.248067609


     kinetic energy (Ekin) =     0.00207496 Ry
     temperature           =   109.20315450 K 
     Ekin + Etot (const)   =   -34.75955307 Ry
     Message from routine dynamics:
     Total linear momentum <> 0

     Linear momentum :   -0.1656933782    0.0919146343    0.1077850538

     Writing output data file ms2.save
 ****** END OF FORCE_ESF COMPUTATION ******
     Check: negative starting charge=   -0.004409
     NEW-OLD atomic charge density approx. for the potential
     Check: negative starting charge=   -0.004406

     negative rho (up, down):  0.483E-02 0.000E+00
 ****** END OF ADD_ESF COMPUTATION ******

     total cpu time spent up to now is       28.3 secs

     per-process dynamical memory:    16.9 Mb

     Self-consistent Calculation

     iteration #  1     ecut=    25.00 Ry     beta=0.70
     Davidson diagonalization with overlap
     ethr =  1.00E-06,  avg # of iterations =  4.0

     negative rho (up, down):  0.482E-02 0.000E+00

     total cpu time spent up to now is       28.6 secs

     total energy              =     -34.74715852 Ry
     Harris-Foulkes estimate   =     -34.74718664 Ry
     estimated scf accuracy    <       0.00008186 Ry

     iteration #  2     ecut=    25.00 Ry     beta=0.70
     Davidson diagonalization with overlap
     ethr =  1.02E-06,  avg # of iterations =  2.0

     negative rho (up, down):  0.484E-02 0.000E+00

     total cpu time spent up to now is       28.9 secs

     total energy              =     -34.74716772 Ry
     Harris-Foulkes estimate   =     -34.74718668 Ry
     estimated scf accuracy    <       0.00003615 Ry

     iteration #  3     ecut=    25.00 Ry     beta=0.70
     Davidson diagonalization with overlap
     ethr =  4.52E-07,  avg # of iterations =  2.0

     negative rho (up, down):  0.485E-02 0.000E+00

     total cpu time spent up to now is       29.2 secs

     total energy              =     -34.74717754 Ry
     Harris-Foulkes estimate   =     -34.74717881 Ry
     estimated scf accuracy    <       0.00000428 Ry

     iteration #  4     ecut=    25.00 Ry     beta=0.70
     Davidson diagonalization with overlap
     ethr =  5.35E-08,  avg # of iterations =  2.0

     negative rho (up, down):  0.485E-02 0.000E+00

     total cpu time spent up to now is       29.4 secs

     End of self-consistent calculation

          k = 0.0000 0.0000 0.0000 (  6807 PWs)   bands (ev):

   -25.3649 -13.2583  -9.5089  -7.7049

!    total energy              =     -34.74717829 Ry
     Harris-Foulkes estimate   =     -34.74717827 Ry
     estimated scf accuracy    <       0.00000005 Ry

     convergence has been achieved in   4 iterations

     Forces acting on atoms (Ry/au):

     atom    1 type  1   force =     0.01402322   -0.03557451    0.20848293
     atom    2 type  2   force =     0.06628625    0.00828346   -0.00747469
     atom    3 type  2   force =    -0.02550503   -0.01138506    0.07851285

     Total force =     0.237466     Total SCF correction =     0.000518

     Entering Dynamics:    iteration =    10
                           time      =   0.0097 pico-seconds


ATOMIC_POSITIONS (angstrom)
O        5.195273193   4.895786289   5.212561281
H        4.219463856   4.829815441   5.331522663
H        5.401272563   5.064511734   4.254971427


     kinetic energy (Ekin) =     0.00184823 Ry
     temperature           =    97.27082557 K 
     Ekin + Etot (const)   =   -34.74533006 Ry
     Message from routine dynamics:
     Total linear momentum <> 0

     Linear momentum :   -0.1517616746    0.1060569693    0.0991599893

     Writing output data file ms2.save
 ****** END OF FORCE_ESF COMPUTATION ******
     Check: negative starting charge=   -0.004406
     NEW-OLD atomic charge density approx. for the potential
     Check: negative starting charge=   -0.004407

     negative rho (up, down):  0.481E-02 0.000E+00
 ****** END OF ADD_ESF COMPUTATION ******

     total cpu time spent up to now is       31.3 secs

     per-process dynamical memory:    16.9 Mb

     Self-consistent Calculation

     iteration #  1     ecut=    25.00 Ry     beta=0.70
     Davidson diagonalization with overlap
     ethr =  1.00E-06,  avg # of iterations =  4.0

     negative rho (up, down):  0.482E-02 0.000E+00

     total cpu time spent up to now is       31.7 secs

     total energy              =     -34.73277417 Ry
     Harris-Foulkes estimate   =     -34.73277670 Ry
     estimated scf accuracy    <       0.00003881 Ry

     iteration #  2     ecut=    25.00 Ry     beta=0.70
     Davidson diagonalization with overlap
     ethr =  4.85E-07,  avg # of iterations =  2.0

     negative rho (up, down):  0.483E-02 0.000E+00

     total cpu time spent up to now is       32.0 secs

     total energy              =     -34.73277778 Ry
     Harris-Foulkes estimate   =     -34.73277782 Ry
     estimated scf accuracy    <       0.00000328 Ry

     iteration #  3     ecut=    25.00 Ry     beta=0.70
     Davidson diagonalization with overlap
     ethr =  4.10E-08,  avg # of iterations =  2.0

     negative rho (up, down):  0.484E-02 0.000E+00

     total cpu time spent up to now is       32.2 secs

     total energy              =     -34.73277809 Ry
     Harris-Foulkes estimate   =     -34.73277881 Ry
     estimated scf accuracy    <       0.00000158 Ry

     iteration #  4     ecut=    25.00 Ry     beta=0.70
     Davidson diagonalization with overlap
     ethr =  1.97E-08,  avg # of iterations =  2.0

     negative rho (up, down):  0.484E-02 0.000E+00

     total cpu time spent up to now is       32.5 secs

     End of self-consistent calculation

          k = 0.0000 0.0000 0.0000 (  6807 PWs)   bands (ev):

   -25.3419 -13.2516  -9.4742  -7.6823

!    total energy              =     -34.73277846 Ry
     Harris-Foulkes estimate   =     -34.73277849 Ry
     estimated scf accuracy    <       0.00000008 Ry

     convergence has been achieved in   4 iterations

     Forces acting on atoms (Ry/au):

     atom    1 type  1   force =     0.01568229   -0.03325174    0.20992507
     atom    2 type  2   force =     0.06766105    0.00921286   -0.00804957
     atom    3 type  2   force =    -0.02643901   -0.01092121    0.07534802

     Total force =     0.237999     Total SCF correction =     0.000167

     Entering Dynamics:    iteration =    11
                           time      =   0.0106 pico-seconds


ATOMIC_POSITIONS (angstrom)
O        5.191080199   4.899380790   5.214514970
H        4.217909060   4.825843965   5.317625122
H        5.406657834   5.063928625   4.268211440


     kinetic energy (Ekin) =     0.00244175 Ry
     temperature           =   128.50695158 K 
     Ekin + Etot (const)   =   -34.73033671 Ry
     Message from routine dynamics:
     Total linear momentum <> 0

     Linear momentum :   -0.1461115248    0.1223206402    0.0706830789

     Writing output data file ms2.save
 ****** END OF FORCE_ESF COMPUTATION ******
     Check: negative starting charge=   -0.004407
     NEW-OLD atomic charge density approx. for the potential
     Check: negative starting charge=   -0.004412

     negative rho (up, down):  0.484E-02 0.000E+00
 ****** END OF ADD_ESF COMPUTATION ******

     total cpu time spent up to now is       34.3 secs

     per-process dynamical memory:    16.9 Mb

     Self-consistent Calculation

     iteration #  1     ecut=    25.00 Ry     beta=0.70
     Davidson diagonalization with overlap
     ethr =  1.00E-06,  avg # of iterations =  4.0

     negative rho (up, down):  0.481E-02 0.000E+00

     total cpu time spent up to now is       34.6 secs

     total energy              =     -34.69461125 Ry
     Harris-Foulkes estimate   =     -34.69474892 Ry
     estimated scf accuracy    <       0.00028186 Ry

     iteration #  2     ecut=    25.00 Ry     beta=0.70
     Davidson diagonalization with overlap
     ethr =  3.52E-06,  avg # of iterations =  2.0

     negative rho (up, down):  0.482E-02 0.000E+00

     total cpu time spent up to now is       34.9 secs

     total energy              =     -34.69465619 Ry
     Harris-Foulkes estimate   =     -34.69465788 Ry
     estimated scf accuracy    <       0.00000821 Ry

     iteration #  3     ecut=    25.00 Ry     beta=0.70
     Davidson diagonalization with overlap
     ethr =  1.03E-07,  avg # of iterations =  2.0

     negative rho (up, down):  0.481E-02 0.000E+00

     total cpu time spent up to now is       35.1 secs

     End of self-consistent calculation

          k = 0.0000 0.0000 0.0000 (  6807 PWs)   bands (ev):

   -25.3811 -13.2723  -9.4489  -7.6575

!    total energy              =     -34.69465799 Ry
     Harris-Foulkes estimate   =     -34.69465816 Ry
     estimated scf accuracy    <       0.00000099 Ry

     convergence has been achieved in   3 iterations

     Forces acting on atoms (Ry/au):

     atom    1 type  1   force =    -0.03473493   -0.03477894    0.22146277
     atom    2 type  2   force =     0.05537300    0.01000072   -0.00643074
     atom    3 type  2   force =    -0.02890726   -0.00885190    0.05984027

     Total force =     0.243237     Total SCF correction =     0.001484

     Entering Dynamics:    iteration =    12
                           time      =   0.0116 pico-seconds


ATOMIC_POSITIONS (angstrom)
O        5.187139455   4.903334974   5.216108643
H        4.218478539   4.822262607   5.298274883
H        5.408034368   5.063153520   4.284381451


     kinetic energy (Ekin) =     0.00360461 Ry
     temperature           =   189.70753800 K 
     Ekin + Etot (const)   =   -34.69105337 Ry
     Message from routine dynamics:
     Total linear momentum <> 0

     Linear momentum :   -0.1411418644    0.1360709564    0.0515512034

     Writing output data file ms2.save
 ****** END OF FORCE_ESF COMPUTATION ******
     Check: negative starting charge=   -0.004412
     NEW-OLD atomic charge density approx. for the potential
     Check: negative starting charge=   -0.004416

     negative rho (up, down):  0.487E-02 0.000E+00
 ****** END OF ADD_ESF COMPUTATION ******

     total cpu time spent up to now is       37.0 secs

     per-process dynamical memory:    16.9 Mb

     Self-consistent Calculation

     iteration #  1     ecut=    25.00 Ry     beta=0.70
     Davidson diagonalization with overlap
     ethr =  1.00E-06,  avg # of iterations =  4.0

     negative rho (up, down):  0.486E-02 0.000E+00

     total cpu time spent up to now is       37.3 secs

     total energy              =     -34.68084717 Ry
     Harris-Foulkes estimate   =     -34.68096722 Ry
     estimated scf accuracy    <       0.00024274 Ry

     iteration #  2     ecut=    25.00 Ry     beta=0.70
     Davidson diagonalization with overlap
     ethr =  3.03E-06,  avg # of iterations =  2.0

     negative rho (up, down):  0.486E-02 0.000E+00

     total cpu time spent up to now is       37.6 secs

     total energy              =     -34.68088492 Ry
     Harris-Foulkes estimate   =     -34.68097456 Ry
     estimated scf accuracy    <       0.00017920 Ry

     iteration #  3     ecut=    25.00 Ry     beta=0.70
     Davidson diagonalization with overlap
     ethr =  2.24E-06,  avg # of iterations =  2.0

     negative rho (up, down):  0.485E-02 0.000E+00

     total cpu time spent up to now is       38.0 secs

     total energy              =     -34.68092674 Ry
     Harris-Foulkes estimate   =     -34.68092683 Ry
     estimated scf accuracy    <       0.00000435 Ry

     iteration #  4     ecut=    25.00 Ry     beta=0.70
     Davidson diagonalization with overlap
     ethr =  5.44E-08,  avg # of iterations =  2.0

     negative rho (up, down):  0.486E-02 0.000E+00

     total cpu time spent up to now is       38.2 secs

     End of self-consistent calculation

          k = 0.0000 0.0000 0.0000 (  6807 PWs)   bands (ev):

   -25.4786 -13.3280  -9.4804  -7.6696

!    total energy              =     -34.68092740 Ry
     Harris-Foulkes estimate   =     -34.68092752 Ry
     estimated scf accuracy    <       0.00000019 Ry

     convergence has been achieved in   4 iterations

     Forces acting on atoms (Ry/au):

     atom    1 type  1   force =    -0.02864621   -0.03282667    0.23695583
     atom    2 type  2   force =     0.04428867    0.00939223   -0.00271829
     atom    3 type  2   force =    -0.02183754   -0.00494757    0.03807599

     Total force =     0.249107     Total SCF correction =     0.000949

     Entering Dynamics:    iteration =    13
                           time      =   0.0126 pico-seconds


ATOMIC_POSITIONS (angstrom)
O        5.183033184   4.907518678   5.218542689
H        4.220365378   4.817638666   5.275632897
H        5.409531334   5.063550704   4.299246189


     kinetic energy (Ekin) =     0.00458067 Ry
     temperature           =   241.07634284 K 
     Ekin + Etot (const)   =   -34.67634674 Ry
     Message from routine dynamics:
     Total linear momentum <> 0

     Linear momentum :   -0.1439382455    0.1448528338    0.0719903934

     Writing output data file ms2.save
 ****** END OF FORCE_ESF COMPUTATION ******
     Check: negative starting charge=   -0.004416
     NEW-OLD atomic charge density approx. for the potential
     Check: negative starting charge=   -0.004420

     negative rho (up, down):  0.502E-02 0.000E+00
 ****** END OF ADD_ESF COMPUTATION ******

     total cpu time spent up to now is       40.1 secs

     per-process dynamical memory:    16.9 Mb

     Self-consistent Calculation

     iteration #  1     ecut=    25.00 Ry     beta=0.70
     Davidson diagonalization with overlap
     ethr =  1.00E-06,  avg # of iterations =  4.0

     negative rho (up, down):  0.492E-02 0.000E+00

     total cpu time spent up to now is       40.4 secs

     total energy              =     -34.66578237 Ry
     Harris-Foulkes estimate   =     -34.66584568 Ry
     estimated scf accuracy    <       0.00018151 Ry

     iteration #  2     ecut=    25.00 Ry     beta=0.70
     Davidson diagonalization with overlap
     ethr =  2.27E-06,  avg # of iterations =  2.0

     negative rho (up, down):  0.491E-02 0.000E+00

     total cpu time spent up to now is       40.6 secs

     total energy              =     -34.66580333 Ry
     Harris-Foulkes estimate   =     -34.66584922 Ry
     estimated scf accuracy    <       0.00008809 Ry

     iteration #  3     ecut=    25.00 Ry     beta=0.70
     Davidson diagonalization with overlap
     ethr =  1.10E-06,  avg # of iterations =  2.0

     negative rho (up, down):  0.490E-02 0.000E+00

     total cpu time spent up to now is       40.9 secs

     total energy              =     -34.66582673 Ry
     Harris-Foulkes estimate   =     -34.66582845 Ry
     estimated scf accuracy    <       0.00000741 Ry

     iteration #  4     ecut=    25.00 Ry     beta=0.70
     Davidson diagonalization with overlap
     ethr =  9.27E-08,  avg # of iterations =  2.0

     negative rho (up, down):  0.491E-02 0.000E+00

     total cpu time spent up to now is       41.1 secs

     End of self-consistent calculation

          k = 0.0000 0.0000 0.0000 (  6807 PWs)   bands (ev):

   -25.5668 -13.3534  -9.5181  -7.6733

!    total energy              =     -34.66582788 Ry
     Harris-Foulkes estimate   =     -34.66582788 Ry
     estimated scf accuracy    <       0.00000009 Ry

     convergence has been achieved in   4 iterations

     Forces acting on atoms (Ry/au):

     atom    1 type  1   force =    -0.02324346   -0.02939028    0.25008757
     atom    2 type  2   force =     0.03198371    0.00843080    0.00150561
     atom    3 type  2   force =    -0.01386919   -0.00125490    0.01801063

     Total force =     0.256052     Total SCF correction =     0.000535

     Entering Dynamics:    iteration =    14
                           time      =   0.0135 pico-seconds


ATOMIC_POSITIONS (angstrom)
O        5.179238579   4.911704243   5.223349756
H        4.219842709   4.811799566   5.252106786
H        5.412246140   5.065575914   4.309216745


     kinetic energy (Ekin) =     0.00480808 Ry
     temperature           =   253.04477059 K 
     Ekin + Etot (const)   =   -34.66101980 Ry
     Message from routine dynamics:
     Total linear momentum <> 0

     Linear momentum :   -0.1351725843    0.1458752398    0.1463426833

     Writing output data file ms2.save
 ****** END OF FORCE_ESF COMPUTATION ******
     Check: negative starting charge=   -0.004420
     NEW-OLD atomic charge density approx. for the potential
     Check: negative starting charge=   -0.004425

     negative rho (up, down):  0.521E-02 0.000E+00
 ****** END OF ADD_ESF COMPUTATION ******

     total cpu time spent up to now is       43.0 secs

     per-process dynamical memory:    16.9 Mb

     Self-consistent Calculation

     iteration #  1     ecut=    25.00 Ry     beta=0.70
     Davidson diagonalization with overlap
     ethr =  1.00E-06,  avg # of iterations =  4.0

     negative rho (up, down):  0.496E-02 0.000E+00

     total cpu time spent up to now is       43.3 secs

     total energy              =     -34.64980657 Ry
     Harris-Foulkes estimate   =     -34.64981621 Ry
     estimated scf accuracy    <       0.00010609 Ry

     iteration #  2     ecut=    25.00 Ry     beta=0.70
     Davidson diagonalization with overlap
     ethr =  1.33E-06,  avg # of iterations =  2.0

     negative rho (up, down):  0.492E-02 0.000E+00

     total cpu time spent up to now is       43.6 secs

     total energy              =     -34.64981721 Ry
     Harris-Foulkes estimate   =     -34.64981708 Ry
     estimated scf accuracy    <       0.00000774 Ry

     iteration #  3     ecut=    25.00 Ry     beta=0.70
     Davidson diagonalization with overlap
     ethr =  9.67E-08,  avg # of iterations =  2.0

     negative rho (up, down):  0.492E-02 0.000E+00

     total cpu time spent up to now is       43.9 secs

     total energy              =     -34.64981799 Ry
     Harris-Foulkes estimate   =     -34.64981953 Ry
     estimated scf accuracy    <       0.00000343 Ry

     iteration #  4     ecut=    25.00 Ry     beta=0.70
     Davidson diagonalization with overlap
     ethr =  4.29E-08,  avg # of iterations =  2.0

     negative rho (up, down):  0.492E-02 0.000E+00

     total cpu time spent up to now is       44.1 secs

     End of self-consistent calculation

          k = 0.0000 0.0000 0.0000 (  6807 PWs)   bands (ev):

   -25.5978 -13.3092  -9.5544  -7.6624

!    total energy              =     -34.64981876 Ry
     Harris-Foulkes estimate   =     -34.64981891 Ry
     estimated scf accuracy    <       0.00000026 Ry

     convergence has been achieved in   4 iterations

     Forces acting on atoms (Ry/au):

     atom    1 type  1   force =    -0.02079458   -0.02348967    0.25044191
     atom    2 type  2   force =     0.02471573    0.00780777    0.00512000
     atom    3 type  2   force =    -0.00871183    0.00031863    0.01099398

     Total force =     0.254166     Total SCF correction =     0.000302

     Entering Dynamics:    iteration =    15
                           time      =   0.0145 pico-seconds


ATOMIC_POSITIONS (angstrom)
O        5.176066968   4.915748615   5.231699242
H        4.215431072   4.804237176   5.229913682
H        5.417864580   5.069484901   4.313647954


     kinetic energy (Ekin) =     0.00514680 Ry
     temperature           =   270.87123831 K 
     Ekin + Etot (const)   =   -34.64467196 Ry
     Message from routine dynamics:
     Total linear momentum <> 0

     Linear momentum :   -0.1144246927    0.1410279465    0.2675429085

     Writing output data file ms2.save
 ****** END OF FORCE_ESF COMPUTATION ******
     Check: negative starting charge=   -0.004425
     NEW-OLD atomic charge density approx. for the potential
     Check: negative starting charge=   -0.004431

     negative rho (up, down):  0.540E-02 0.000E+00
 ****** END OF ADD_ESF COMPUTATION ******

     total cpu time spent up to now is       45.9 secs

     per-process dynamical memory:    16.9 Mb

     Self-consistent Calculation

     iteration #  1     ecut=    25.00 Ry     beta=0.70
     Davidson diagonalization with overlap
     ethr =  1.00E-06,  avg # of iterations =  4.0

     negative rho (up, down):  0.493E-02 0.000E+00

     total cpu time spent up to now is       46.2 secs

     total energy              =     -34.63355202 Ry
     Harris-Foulkes estimate   =     -34.63361739 Ry
     estimated scf accuracy    <       0.00018275 Ry

     iteration #  2     ecut=    25.00 Ry     beta=0.70
     Davidson diagonalization with overlap
     ethr =  2.28E-06,  avg # of iterations =  2.0

     negative rho (up, down):  0.489E-02 0.000E+00

     total cpu time spent up to now is       46.5 secs

     total energy              =     -34.63357406 Ry
     Harris-Foulkes estimate   =     -34.63360516 Ry
     estimated scf accuracy    <       0.00005934 Ry

     iteration #  3     ecut=    25.00 Ry     beta=0.70
     Davidson diagonalization with overlap
     ethr =  7.42E-07,  avg # of iterations =  2.0

     negative rho (up, down):  0.487E-02 0.000E+00

     total cpu time spent up to now is       46.8 secs

     total energy              =     -34.63359034 Ry
     Harris-Foulkes estimate   =     -34.63359416 Ry
     estimated scf accuracy    <       0.00001032 Ry

     iteration #  4     ecut=    25.00 Ry     beta=0.70
     Davidson diagonalization with overlap
     ethr =  1.29E-07,  avg # of iterations =  2.0

     negative rho (up, down):  0.487E-02 0.000E+00

     total cpu time spent up to now is       47.0 secs

     End of self-consistent calculation

          k = 0.0000 0.0000 0.0000 (  6807 PWs)   bands (ev):

   -25.5532 -13.1877  -9.5875  -7.6399

!    total energy              =     -34.63359235 Ry
     Harris-Foulkes estimate   =     -34.63359230 Ry
     estimated scf accuracy    <       0.00000012 Ry

     convergence has been achieved in   4 iterations

     Forces acting on atoms (Ry/au):

     atom    1 type  1   force =    -0.02321015   -0.01525180    0.23402725
     atom    2 type  2   force =     0.02714042    0.00830309    0.00789073
     atom    3 type  2   force =    -0.00868894   -0.00104932    0.02185949

     Total force =     0.238668     Total SCF correction =     0.000536

     Entering Dynamics:    iteration =    16
                           time      =   0.0155 pico-seconds


ATOMIC_POSITIONS (angstrom)
O        5.173594694   4.919666528   5.243544348
H        4.207823379   4.794855121   5.210147855
H        5.426621383   5.074960311   4.315335820


     kinetic energy (Ekin) =     0.00634906 Ry
     temperature           =   334.14531378 K 
     Ekin + Etot (const)   =   -34.62724329 Ry
     Message from routine dynamics:
     Total linear momentum <> 0

     Linear momentum :   -0.0887128132    0.1357694818    0.3959993800

     Writing output data file ms2.save
 ****** END OF FORCE_ESF COMPUTATION ******
     Check: negative starting charge=   -0.004431
     NEW-OLD atomic charge density approx. for the potential
     Check: negative starting charge=   -0.004438

     negative rho (up, down):  0.548E-02 0.000E+00
 ****** END OF ADD_ESF COMPUTATION ******

     total cpu time spent up to now is       48.8 secs

     per-process dynamical memory:    16.9 Mb

     Self-consistent Calculation

     iteration #  1     ecut=    25.00 Ry     beta=0.70
     Davidson diagonalization with overlap
     ethr =  1.00E-06,  avg # of iterations =  5.0

     negative rho (up, down):  0.484E-02 0.000E+00

     total cpu time spent up to now is       49.1 secs

     total energy              =     -34.65419860 Ry
     Harris-Foulkes estimate   =     -34.65463187 Ry
     estimated scf accuracy    <       0.00080211 Ry

     iteration #  2     ecut=    25.00 Ry     beta=0.70
     Davidson diagonalization with overlap
     ethr =  1.00E-05,  avg # of iterations =  2.0

     negative rho (up, down):  0.480E-02 0.000E+00

     total cpu time spent up to now is       49.4 secs

     total energy              =     -34.65432147 Ry
     Harris-Foulkes estimate   =     -34.65439697 Ry
     estimated scf accuracy    <       0.00012739 Ry

     iteration #  3     ecut=    25.00 Ry     beta=0.70
     Davidson diagonalization with overlap
     ethr =  1.59E-06,  avg # of iterations =  2.0

     negative rho (up, down):  0.478E-02 0.000E+00

     total cpu time spent up to now is       49.7 secs

     total energy              =     -34.65435791 Ry
     Harris-Foulkes estimate   =     -34.65437747 Ry
     estimated scf accuracy    <       0.00004269 Ry

     iteration #  4     ecut=    25.00 Ry     beta=0.70
     Davidson diagonalization with overlap
     ethr =  5.34E-07,  avg # of iterations =  2.0

     negative rho (up, down):  0.478E-02 0.000E+00

     total cpu time spent up to now is       49.9 secs

     End of self-consistent calculation

          k = 0.0000 0.0000 0.0000 (  6807 PWs)   bands (ev):

   -25.4888 -13.0708  -9.6507  -7.6690

!    total energy              =     -34.65436655 Ry
     Harris-Foulkes estimate   =     -34.65436639 Ry
     estimated scf accuracy    <       0.00000042 Ry

     convergence has been achieved in   4 iterations

     Forces acting on atoms (Ry/au):

     atom    1 type  1   force =    -0.04514010    0.00153299    0.27061901
     atom    2 type  2   force =     0.03728191    0.01095871    0.02028460
     atom    3 type  2   force =    -0.01071856   -0.00456645    0.04993615

     Total force =     0.282534     Total SCF correction =     0.000314

     Entering Dynamics:    iteration =    17
                           time      =   0.0164 pico-seconds


ATOMIC_POSITIONS (angstrom)
O        5.171457795   4.923614478   5.257259237
H        4.199461267   4.784121938   5.193843975
H        5.438013063   5.081191840   4.318982374


     kinetic energy (Ekin) =     0.00740209 Ry
     temperature           =   389.56536221 K 
     Ekin + Etot (const)   =   -34.64696446 Ry
     Message from routine dynamics:
     Total linear momentum <> 0

     Linear momentum :   -0.0719750263    0.1355052017    0.4776208207

     Writing output data file ms2.save
 ****** END OF FORCE_ESF COMPUTATION ******
     Check: negative starting charge=   -0.004438
     NEW-OLD atomic charge density approx. for the potential
     Check: negative starting charge=   -0.004438

     negative rho (up, down):  0.542E-02 0.000E+00
 ****** END OF ADD_ESF COMPUTATION ******

     total cpu time spent up to now is       51.8 secs

     per-process dynamical memory:    16.9 Mb

     Self-consistent Calculation

     iteration #  1     ecut=    25.00 Ry     beta=0.70
     Davidson diagonalization with overlap
     ethr =  1.00E-06,  avg # of iterations =  5.0

     negative rho (up, down):  0.479E-02 0.000E+00

     total cpu time spent up to now is       52.1 secs

     total energy              =     -34.61076329 Ry
     Harris-Foulkes estimate   =     -34.61117900 Ry
     estimated scf accuracy    <       0.00068000 Ry

     iteration #  2     ecut=    25.00 Ry     beta=0.70
     Davidson diagonalization with overlap
     ethr =  8.50E-06,  avg # of iterations =  3.0

     negative rho (up, down):  0.478E-02 0.000E+00

     total cpu time spent up to now is       52.4 secs

     total energy              =     -34.61088977 Ry
     Harris-Foulkes estimate   =     -34.61125115 Ry
     estimated scf accuracy    <       0.00077636 Ry

     iteration #  3     ecut=    25.00 Ry     beta=0.70
     Davidson diagonalization with overlap
     ethr =  8.50E-06,  avg # of iterations =  2.0

     negative rho (up, down):  0.475E-02 0.000E+00

     total cpu time spent up to now is       52.7 secs

     total energy              =     -34.61104423 Ry
     Harris-Foulkes estimate   =     -34.61104305 Ry
     estimated scf accuracy    <       0.00000502 Ry

     iteration #  4     ecut=    25.00 Ry     beta=0.70
     Davidson diagonalization with overlap
     ethr =  6.27E-08,  avg # of iterations =  2.0

     negative rho (up, down):  0.474E-02 0.000E+00

     total cpu time spent up to now is       52.9 secs

     End of self-consistent calculation

          k = 0.0000 0.0000 0.0000 (  6807 PWs)   bands (ev):

   -25.3305 -12.8512  -9.6142  -7.5796

!    total energy              =     -34.61104653 Ry
     Harris-Foulkes estimate   =     -34.61104670 Ry
     estimated scf accuracy    <       0.00000043 Ry

     convergence has been achieved in   4 iterations

     Forces acting on atoms (Ry/au):

     atom    1 type  1   force =    -0.05547031    0.00562357    0.19702506
     atom    2 type  2   force =     0.05041556    0.01312054    0.01857752
     atom    3 type  2   force =    -0.01535400   -0.00730842    0.06555746

     Total force =     0.222651     Total SCF correction =     0.001625

     Entering Dynamics:    iteration =    18
                           time      =   0.0174 pico-seconds


ATOMIC_POSITIONS (angstrom)
O        5.169168623   4.927602430   5.271574790
H        4.193758420   4.772023027   5.174929293
H        5.448082815   5.088956925   4.326279585


     kinetic energy (Ekin) =     0.00804256 Ry
     temperature           =   423.27293550 K 
     Ekin + Etot (const)   =   -34.60300397 Ry
     Message from routine dynamics:
     Total linear momentum <> 0

     Linear momentum :   -0.0745135063    0.1373711806    0.5022212474

     Writing output data file ms2.save
 ****** END OF FORCE_ESF COMPUTATION ******
     Check: negative starting charge=   -0.004438
     NEW-OLD atomic charge density approx. for the potential
     Check: negative starting charge=   -0.004439

     negative rho (up, down):  0.528E-02 0.000E+00
 ****** END OF ADD_ESF COMPUTATION ******

     total cpu time spent up to now is       54.7 secs

     per-process dynamical memory:    16.9 Mb

     Self-consistent Calculation

     iteration #  1     ecut=    25.00 Ry     beta=0.70
     Davidson diagonalization with overlap
     ethr =  1.00E-06,  avg # of iterations =  5.0

     negative rho (up, down):  0.474E-02 0.000E+00

     total cpu time spent up to now is       55.0 secs

     total energy              =     -34.59608192 Ry
     Harris-Foulkes estimate   =     -34.59625268 Ry
     estimated scf accuracy    <       0.00034895 Ry

     iteration #  2     ecut=    25.00 Ry     beta=0.70
     Davidson diagonalization with overlap
     ethr =  4.36E-06,  avg # of iterations =  2.0

     negative rho (up, down):  0.471E-02 0.000E+00

     total cpu time spent up to now is       55.3 secs

     total energy              =     -34.59613126 Ry
     Harris-Foulkes estimate   =     -34.59624857 Ry
     estimated scf accuracy    <       0.00023186 Ry

     iteration #  3     ecut=    25.00 Ry     beta=0.70
     Davidson diagonalization with overlap
     ethr =  2.90E-06,  avg # of iterations =  2.0

     negative rho (up, down):  0.469E-02 0.000E+00

     total cpu time spent up to now is       55.6 secs

     total energy              =     -34.59618776 Ry
     Harris-Foulkes estimate   =     -34.59618977 Ry
     estimated scf accuracy    <       0.00000925 Ry

     iteration #  4     ecut=    25.00 Ry     beta=0.70
     Davidson diagonalization with overlap
     ethr =  1.16E-07,  avg # of iterations =  2.0

     negative rho (up, down):  0.468E-02 0.000E+00

     total cpu time spent up to now is       55.8 secs

     End of self-consistent calculation

          k = 0.0000 0.0000 0.0000 (  6807 PWs)   bands (ev):

   -25.2389 -12.6995  -9.6363  -7.5512

!    total energy              =     -34.59618945 Ry
     Harris-Foulkes estimate   =     -34.59618948 Ry
     estimated scf accuracy    <       0.00000029 Ry

     convergence has been achieved in   4 iterations

     Forces acting on atoms (Ry/au):

     atom    1 type  1   force =    -0.06565788    0.01300278    0.17817633
     atom    2 type  2   force =     0.06116555    0.01563412    0.02242847
     atom    3 type  2   force =    -0.01775787   -0.00888110    0.07818531

     Total force =     0.217308     Total SCF correction =     0.001154

     Entering Dynamics:    iteration =    19
                           time      =   0.0184 pico-seconds


ATOMIC_POSITIONS (angstrom)
O        5.165902372   4.931814345   5.283535230
H        4.192402641   4.759672363   5.156662248
H        5.456691137   5.096569411   4.341142699


     kinetic energy (Ekin) =     0.00731318 Ry
     temperature           =   384.88639478 K 
     Ekin + Etot (const)   =   -34.58887627 Ry
     Message from routine dynamics:
     Total linear momentum <> 0

     Linear momentum :   -0.1039579257    0.1447141399    0.4341556659

     Writing output data file ms2.save
 ****** END OF FORCE_ESF COMPUTATION ******
     Check: negative starting charge=   -0.004439
     NEW-OLD atomic charge density approx. for the potential
     Check: negative starting charge=   -0.004442

     negative rho (up, down):  0.502E-02 0.000E+00
 ****** END OF ADD_ESF COMPUTATION ******

     total cpu time spent up to now is       57.6 secs

     per-process dynamical memory:    16.9 Mb

     Self-consistent Calculation

     iteration #  1     ecut=    25.00 Ry     beta=0.70
     Davidson diagonalization with overlap
     ethr =  1.00E-06,  avg # of iterations =  4.0

     negative rho (up, down):  0.469E-02 0.000E+00

     total cpu time spent up to now is       57.9 secs

     total energy              =     -34.58415687 Ry
     Harris-Foulkes estimate   =     -34.58418866 Ry
     estimated scf accuracy    <       0.00015863 Ry

     iteration #  2     ecut=    25.00 Ry     beta=0.70
     Davidson diagonalization with overlap
     ethr =  1.98E-06,  avg # of iterations =  2.0

     negative rho (up, down):  0.467E-02 0.000E+00

     total cpu time spent up to now is       58.2 secs

     total energy              =     -34.58417106 Ry
     Harris-Foulkes estimate   =     -34.58418786 Ry
     estimated scf accuracy    <       0.00003545 Ry

     iteration #  3     ecut=    25.00 Ry     beta=0.70
     Davidson diagonalization with overlap
     ethr =  4.43E-07,  avg # of iterations =  2.0

     negative rho (up, down):  0.466E-02 0.000E+00

     total cpu time spent up to now is       58.5 secs

     total energy              =     -34.58418031 Ry
     Harris-Foulkes estimate   =     -34.58418551 Ry
     estimated scf accuracy    <       0.00001297 Ry

     iteration #  4     ecut=    25.00 Ry     beta=0.70
     Davidson diagonalization with overlap
     ethr =  1.62E-07,  avg # of iterations =  2.0

     negative rho (up, down):  0.466E-02 0.000E+00

     total cpu time spent up to now is       58.7 secs

     End of self-consistent calculation

          k = 0.0000 0.0000 0.0000 (  6807 PWs)   bands (ev):

   -25.2137 -12.6216  -9.6640  -7.5406

!    total energy              =     -34.58418294 Ry
     Harris-Foulkes estimate   =     -34.58418289 Ry
     estimated scf accuracy    <       0.00000011 Ry

     convergence has been achieved in   4 iterations

     Forces acting on atoms (Ry/au):

     atom    1 type  1   force =    -0.07328766    0.01900674    0.17183299
     atom    2 type  2   force =     0.06545490    0.01734997    0.02621592
     atom    3 type  2   force =    -0.01696284   -0.00839427    0.07939330

     Total force =     0.217240     Total SCF correction =     0.000422

     Entering Dynamics:    iteration =    20
                           time      =   0.0194 pico-seconds


ATOMIC_POSITIONS (angstrom)
O        5.160916204   4.936165159   5.291804959
H        4.195818157   4.747338607   5.138138165
H        5.463518414   5.104420424   4.361488270


     kinetic energy (Ekin) =     0.00679559 Ry
     temperature           =   357.64602861 K 
     Ekin + Etot (const)   =   -34.57738734 Ry
     Message from routine dynamics:
     Total linear momentum <> 0

     Linear momentum :   -0.1606134379    0.1504373934    0.3098288890

     Writing output data file ms2.save
 ****** END OF FORCE_ESF COMPUTATION ******
     Check: negative starting charge=   -0.004442
     NEW-OLD atomic charge density approx. for the potential
     Check: negative starting charge=   -0.004449

     negative rho (up, down):  0.479E-02 0.000E+00
 ****** END OF ADD_ESF COMPUTATION ******

     total cpu time spent up to now is       60.5 secs

     per-process dynamical memory:    16.9 Mb

     Self-consistent Calculation

     iteration #  1     ecut=    25.00 Ry     beta=0.70
     Davidson diagonalization with overlap
     ethr =  1.00E-06,  avg # of iterations =  4.0

     negative rho (up, down):  0.466E-02 0.000E+00

     total cpu time spent up to now is       60.8 secs

     total energy              =     -34.57565167 Ry
     Harris-Foulkes estimate   =     -34.57566666 Ry
     estimated scf accuracy    <       0.00014456 Ry

     iteration #  2     ecut=    25.00 Ry     beta=0.70
     Davidson diagonalization with overlap
     ethr =  1.81E-06,  avg # of iterations =  2.0

     negative rho (up, down):  0.466E-02 0.000E+00

     total cpu time spent up to now is       61.1 secs

     total energy              =     -34.57566386 Ry
     Harris-Foulkes estimate   =     -34.57566945 Ry
     estimated scf accuracy    <       0.00001818 Ry

     iteration #  3     ecut=    25.00 Ry     beta=0.70
     Davidson diagonalization with overlap
     ethr =  2.27E-07,  avg # of iterations =  2.0

     negative rho (up, down):  0.467E-02 0.000E+00

     total cpu time spent up to now is       61.4 secs

     total energy              =     -34.57566727 Ry
     Harris-Foulkes estimate   =     -34.57567198 Ry
     estimated scf accuracy    <       0.00001099 Ry

     iteration #  4     ecut=    25.00 Ry     beta=0.70
     Davidson diagonalization with overlap
     ethr =  1.37E-07,  avg # of iterations =  2.0

     negative rho (up, down):  0.467E-02 0.000E+00

     total cpu time spent up to now is       61.6 secs

     End of self-consistent calculation

          k = 0.0000 0.0000 0.0000 (  6807 PWs)   bands (ev):

   -25.2563 -12.6224  -9.6891  -7.5430

!    total energy              =     -34.57566957 Ry
     Harris-Foulkes estimate   =     -34.57566958 Ry
     estimated scf accuracy    <       0.00000015 Ry

     convergence has been achieved in   4 iterations

     Forces acting on atoms (Ry/au):

     atom    1 type  1   force =    -0.07671154    0.02433714    0.17858946
     atom    2 type  2   force =     0.06156431    0.01765618    0.02896441
     atom    3 type  2   force =    -0.01264138   -0.00574507    0.06923974

     Total force =     0.219770     Total SCF correction =     0.000329

     Entering Dynamics:    iteration =    21
                           time      =   0.0203 pico-seconds


ATOMIC_POSITIONS (angstrom)
O        5.153749895   4.940492653   5.296020908
H        4.202764431   4.734972207   5.119778438
H        5.469303598   5.112870179   4.384391844


     kinetic energy (Ekin) =     0.00725710 Ry
     temperature           =   381.93471687 K 
     Ekin + Etot (const)   =   -34.56841247 Ry
     Message from routine dynamics:
     Total linear momentum <> 0

     Linear momentum :   -0.2354359078    0.1508831342    0.1663027863

     Writing output data file ms2.save
 ****** END OF FORCE_ESF COMPUTATION ******
     Check: negative starting charge=   -0.004449
     NEW-OLD atomic charge density approx. for the potential
     Check: negative starting charge=   -0.004455

     negative rho (up, down):  0.467E-02 0.000E+00
 ****** END OF ADD_ESF COMPUTATION ******

     total cpu time spent up to now is       63.5 secs

     per-process dynamical memory:    16.9 Mb

     Self-consistent Calculation

     iteration #  1     ecut=    25.00 Ry     beta=0.70
     Davidson diagonalization with overlap
     ethr =  1.00E-06,  avg # of iterations =  4.0

     negative rho (up, down):  0.466E-02 0.000E+00

     total cpu time spent up to now is       63.8 secs

     total energy              =     -34.56991263 Ry
     Harris-Foulkes estimate   =     -34.57002207 Ry
     estimated scf accuracy    <       0.00028733 Ry

     iteration #  2     ecut=    25.00 Ry     beta=0.70
     Davidson diagonalization with overlap
     ethr =  3.59E-06,  avg # of iterations =  2.0

     negative rho (up, down):  0.469E-02 0.000E+00

     total cpu time spent up to now is       64.1 secs

     total energy              =     -34.56994568 Ry
     Harris-Foulkes estimate   =     -34.57002306 Ry
     estimated scf accuracy    <       0.00014932 Ry

     iteration #  3     ecut=    25.00 Ry     beta=0.70
     Davidson diagonalization with overlap
     ethr =  1.87E-06,  avg # of iterations =  2.0

     negative rho (up, down):  0.470E-02 0.000E+00

     total cpu time spent up to now is       64.4 secs

     total energy              =     -34.56998509 Ry
     Harris-Foulkes estimate   =     -34.56998802 Ry
     estimated scf accuracy    <       0.00001188 Ry

     iteration #  4     ecut=    25.00 Ry     beta=0.70
     Davidson diagonalization with overlap
     ethr =  1.49E-07,  avg # of iterations =  2.0

     negative rho (up, down):  0.471E-02 0.000E+00

     total cpu time spent up to now is       64.6 secs

     End of self-consistent calculation

          k = 0.0000 0.0000 0.0000 (  6807 PWs)   bands (ev):

   -25.3580 -12.6967  -9.7136  -7.5642

!    total energy              =     -34.56998701 Ry
     Harris-Foulkes estimate   =     -34.56998701 Ry
     estimated scf accuracy    <       0.00000016 Ry

     convergence has been achieved in   4 iterations

     Forces acting on atoms (Ry/au):

     atom    1 type  1   force =    -0.07612423    0.02944845    0.19608838
     atom    2 type  2   force =     0.05055469    0.01636145    0.02986304
     atom    3 type  2   force =    -0.00566747   -0.00139919    0.05097995

     Total force =     0.226850     Total SCF correction =     0.000712

     Entering Dynamics:    iteration =    22
                           time      =   0.0213 pico-seconds


ATOMIC_POSITIONS (angstrom)
O        5.144327853   4.944593147   5.296948957
H        4.210642784   4.722104949   5.102415937
H        5.475794383   5.122582214   4.405880418


     kinetic energy (Ekin) =     0.00822837 Ry
     temperature           =   433.05159599 K 
     Ekin + Etot (const)   =   -34.56175865 Ry
     Message from routine dynamics:
     Total linear momentum <> 0

     Linear momentum :   -0.3150175640    0.1442527203    0.0438279787

     Writing output data file ms2.save
 ****** END OF FORCE_ESF COMPUTATION ******
     Check: negative starting charge=   -0.004455
     NEW-OLD atomic charge density approx. for the potential
     Check: negative starting charge=   -0.004456

     negative rho (up, down):  0.466E-02 0.000E+00
 ****** END OF ADD_ESF COMPUTATION ******

     total cpu time spent up to now is       66.4 secs

     per-process dynamical memory:    16.9 Mb

     Self-consistent Calculation

     iteration #  1     ecut=    25.00 Ry     beta=0.70
     Davidson diagonalization with overlap
     ethr =  1.00E-06,  avg # of iterations =  5.0

     negative rho (up, down):  0.467E-02 0.000E+00

     total cpu time spent up to now is       66.7 secs

     total energy              =     -34.56594486 Ry
     Harris-Foulkes estimate   =     -34.56610046 Ry
     estimated scf accuracy    <       0.00035778 Ry

     iteration #  2     ecut=    25.00 Ry     beta=0.70
     Davidson diagonalization with overlap
     ethr =  4.47E-06,  avg # of iterations =  2.0

     negative rho (up, down):  0.473E-02 0.000E+00

     total cpu time spent up to now is       67.0 secs

     total energy              =     -34.56599142 Ry
     Harris-Foulkes estimate   =     -34.56609458 Ry
     estimated scf accuracy    <       0.00019908 Ry

     iteration #  3     ecut=    25.00 Ry     beta=0.70
     Davidson diagonalization with overlap
     ethr =  2.49E-06,  avg # of iterations =  2.0

     negative rho (up, down):  0.475E-02 0.000E+00

     total cpu time spent up to now is       67.3 secs

     total energy              =     -34.56604260 Ry
     Harris-Foulkes estimate   =     -34.56604544 Ry
     estimated scf accuracy    <       0.00001209 Ry

     iteration #  4     ecut=    25.00 Ry     beta=0.70
     Davidson diagonalization with overlap
     ethr =  1.51E-07,  avg # of iterations =  2.0

     negative rho (up, down):  0.476E-02 0.000E+00

     total cpu time spent up to now is       67.5 secs

     End of self-consistent calculation

          k = 0.0000 0.0000 0.0000 (  6807 PWs)   bands (ev):

   -25.4712 -12.8084  -9.7211  -7.5880

[...]
H        4.233312788   4.743133275   5.302480219
H        5.544785504   4.742661293   4.467569451


     kinetic energy (Ekin) =     0.01484723 Ry
     temperature           =   781.39640554 K 
     Ekin + Etot (const)   =   -34.88760288 Ry
     Message from routine dynamics:
     Total linear momentum <> 0

     Linear momentum :    0.2011291601    0.2779978432   -0.2908919269

     Writing output data file ms2.save
 ****** END OF FORCE_ESF COMPUTATION ******
     Check: negative starting charge=   -0.004441
     NEW-OLD atomic charge density approx. for the potential
     Check: negative starting charge=   -0.004446

     negative rho (up, down):  0.527E-02 0.000E+00
 ****** END OF ADD_ESF COMPUTATION ******

     total cpu time spent up to now is      566.8 secs

     per-process dynamical memory:    17.3 Mb

     Self-consistent Calculation

     iteration #  1     ecut=    25.00 Ry     beta=0.70
     Davidson diagonalization with overlap
     ethr =  1.00E-06,  avg # of iterations =  4.0

     negative rho (up, down):  0.483E-02 0.000E+00

     total cpu time spent up to now is      567.1 secs

     total energy              =     -34.89673118 Ry
     Harris-Foulkes estimate   =     -34.89682393 Ry
     estimated scf accuracy    <       0.00040299 Ry

     iteration #  2     ecut=    25.00 Ry     beta=0.70
     Davidson diagonalization with overlap
     ethr =  5.04E-06,  avg # of iterations =  2.0

     negative rho (up, down):  0.479E-02 0.000E+00

     total cpu time spent up to now is      567.4 secs

     total energy              =     -34.89677830 Ry
     Harris-Foulkes estimate   =     -34.89688054 Ry
     estimated scf accuracy    <       0.00020928 Ry

     iteration #  3     ecut=    25.00 Ry     beta=0.70
     Davidson diagonalization with overlap
     ethr =  2.62E-06,  avg # of iterations =  2.0

     negative rho (up, down):  0.477E-02 0.000E+00

     total cpu time spent up to now is      567.7 secs

     total energy              =     -34.89683298 Ry
     Harris-Foulkes estimate   =     -34.89683536 Ry
     estimated scf accuracy    <       0.00001733 Ry

     iteration #  4     ecut=    25.00 Ry     beta=0.70
     Davidson diagonalization with overlap
     ethr =  2.17E-07,  avg # of iterations =  2.0

     negative rho (up, down):  0.476E-02 0.000E+00

     total cpu time spent up to now is      567.9 secs

     End of self-consistent calculation

          k = 0.0000 0.0000 0.0000 (  6807 PWs)   bands (ev):

   -25.6046 -13.1865 -10.0255  -8.0044

!    total energy              =     -34.89683560 Ry
     Harris-Foulkes estimate   =     -34.89683561 Ry
     estimated scf accuracy    <       0.00000019 Ry

     convergence has been achieved in   4 iterations

     Forces acting on atoms (Ry/au):

     atom    1 type  1   force =    -0.02888213    0.36350009    0.07995564
     atom    2 type  2   force =     0.07461372    0.09269824    0.00122919
     atom    3 type  2   force =    -0.02863084    0.06191903    0.04539317

     Total force =     0.400294     Total SCF correction =     0.000665

     Entering Dynamics:    iteration =   195
                           time      =   0.1887 pico-seconds


ATOMIC_POSITIONS (angstrom)
O        5.019398401   5.318335834   5.050497302
H        4.252260034   4.742745114   5.327079336
H        5.528412576   4.732395211   4.434071870


     kinetic energy (Ekin) =     0.01307698 Ry
     temperature           =   688.22962749 K 
     Ekin + Etot (const)   =   -34.88375862 Ry
     Message from routine dynamics:
     Total linear momentum <> 0

     Linear momentum :    0.0974632627    0.3486765283   -0.0977603693

     Writing output data file ms2.save
 ****** END OF FORCE_ESF COMPUTATION ******
     Check: negative starting charge=   -0.004446
     NEW-OLD atomic charge density approx. for the potential
     Check: negative starting charge=   -0.004445

     negative rho (up, down):  0.525E-02 0.000E+00
 ****** END OF ADD_ESF COMPUTATION ******

     total cpu time spent up to now is      569.8 secs

     per-process dynamical memory:    17.3 Mb

     Self-consistent Calculation

     iteration #  1     ecut=    25.00 Ry     beta=0.70
     Davidson diagonalization with overlap
     ethr =  1.00E-06,  avg # of iterations =  4.0

     negative rho (up, down):  0.479E-02 0.000E+00

     total cpu time spent up to now is      570.1 secs

     total energy              =     -34.88881844 Ry
     Harris-Foulkes estimate   =     -34.88892963 Ry
     estimated scf accuracy    <       0.00040419 Ry

     iteration #  2     ecut=    25.00 Ry     beta=0.70
     Davidson diagonalization with overlap
     ethr =  5.05E-06,  avg # of iterations =  2.0

     negative rho (up, down):  0.474E-02 0.000E+00

     total cpu time spent up to now is      570.4 secs

     total energy              =     -34.88886732 Ry
     Harris-Foulkes estimate   =     -34.88896710 Ry
     estimated scf accuracy    <       0.00020201 Ry

     iteration #  3     ecut=    25.00 Ry     beta=0.70
     Davidson diagonalization with overlap
     ethr =  2.53E-06,  avg # of iterations =  2.0

     negative rho (up, down):  0.472E-02 0.000E+00

     total cpu time spent up to now is      570.7 secs

     total energy              =     -34.88892034 Ry
     Harris-Foulkes estimate   =     -34.88892402 Ry
     estimated scf accuracy    <       0.00001885 Ry

     iteration #  4     ecut=    25.00 Ry     beta=0.70
     Davidson diagonalization with overlap
     ethr =  2.36E-07,  avg # of iterations =  2.0

     negative rho (up, down):  0.471E-02 0.000E+00

     total cpu time spent up to now is      570.9 secs

     End of self-consistent calculation

          k = 0.0000 0.0000 0.0000 (  6807 PWs)   bands (ev):

   -25.4975 -13.0208 -10.0485  -7.9613

!    total energy              =     -34.88892348 Ry
     Harris-Foulkes estimate   =     -34.88892344 Ry
     estimated scf accuracy    <       0.00000023 Ry

     convergence has been achieved in   4 iterations

     Forces acting on atoms (Ry/au):

     atom    1 type  1   force =    -0.01593178    0.34745021    0.05840411
     atom    2 type  2   force =     0.07011751    0.09374850    0.00227308
     atom    3 type  2   force =    -0.04434037    0.08320127    0.06501777

     Total force =     0.388861     Total SCF correction =     0.000973

     Entering Dynamics:    iteration =   196
                           time      =   0.1896 pico-seconds


ATOMIC_POSITIONS (angstrom)
O        5.019767562   5.328140959   5.052681006
H        4.272423698   4.744786792   5.347153298
H        5.509496319   4.725139938   4.404963948


     kinetic energy (Ekin) =     0.01181567 Ry
     temperature           =   621.84802229 K 
     Ekin + Etot (const)   =   -34.87710781 Ry
     Message from routine dynamics:
     Total linear momentum <> 0

     Linear momentum :    0.0165242128    0.3503224279    0.0598358469

     Writing output data file ms2.save
 ****** END OF FORCE_ESF COMPUTATION ******
     Check: negative starting charge=   -0.004445
     NEW-OLD atomic charge density approx. for the potential
     Check: negative starting charge=   -0.004436

     negative rho (up, down):  0.516E-02 0.000E+00
 ****** END OF ADD_ESF COMPUTATION ******

     total cpu time spent up to now is      572.7 secs

     per-process dynamical memory:    17.3 Mb

     Self-consistent Calculation

     iteration #  1     ecut=    25.00 Ry     beta=0.70
     Davidson diagonalization with overlap
     ethr =  1.00E-06,  avg # of iterations =  4.0

     negative rho (up, down):  0.476E-02 0.000E+00

     total cpu time spent up to now is      573.0 secs

     total energy              =     -34.87939132 Ry
     Harris-Foulkes estimate   =     -34.87944428 Ry
     estimated scf accuracy    <       0.00028443 Ry

     iteration #  2     ecut=    25.00 Ry     beta=0.70
     Davidson diagonalization with overlap
     ethr =  3.56E-06,  avg # of iterations =  2.0

     negative rho (up, down):  0.472E-02 0.000E+00

     total cpu time spent up to now is      573.3 secs

     total energy              =     -34.87942330 Ry
     Harris-Foulkes estimate   =     -34.87946703 Ry
     estimated scf accuracy    <       0.00009235 Ry

     iteration #  3     ecut=    25.00 Ry     beta=0.70
     Davidson diagonalization with overlap
     ethr =  1.15E-06,  avg # of iterations =  2.0

     negative rho (up, down):  0.470E-02 0.000E+00

     total cpu time spent up to now is      573.6 secs

     total energy              =     -34.87944834 Ry
     Harris-Foulkes estimate   =     -34.87945529 Ry
     estimated scf accuracy    <       0.00002130 Ry

     iteration #  4     ecut=    25.00 Ry     beta=0.70
     Davidson diagonalization with overlap
     ethr =  2.66E-07,  avg # of iterations =  2.0

     negative rho (up, down):  0.469E-02 0.000E+00

     total cpu time spent up to now is      573.8 secs

     End of self-consistent calculation

          k = 0.0000 0.0000 0.0000 (  6807 PWs)   bands (ev):

   -25.4304 -12.8860 -10.0773  -7.9275

!    total energy              =     -34.87945242 Ry
     Harris-Foulkes estimate   =     -34.87945233 Ry
     estimated scf accuracy    <       0.00000023 Ry

     convergence has been achieved in   4 iterations

     Forces acting on atoms (Ry/au):

     atom    1 type  1   force =    -0.00236433    0.33974262    0.03701446
     atom    2 type  2   force =     0.05977735    0.09049929    0.00600875
     atom    3 type  2   force =    -0.05514045    0.10126191    0.08139902

     Total force =     0.385384     Total SCF correction =     0.000929

     Entering Dynamics:    iteration =   197
                           time      =   0.1906 pico-seconds


ATOMIC_POSITIONS (angstrom)
O        5.019374936   5.335688827   5.057356439
H        4.292727502   4.747117003   5.362027402
H        5.487660339   4.723371558   4.382876968


     kinetic energy (Ekin) =     0.01004118 Ry
     temperature           =   528.45839390 K 
     Ekin + Etot (const)   =   -34.86941124 Ry
     Message from routine dynamics:
     Total linear momentum <> 0

     Linear momentum :   -0.0180491515    0.2802418013    0.1561282117

     Writing output data file ms2.save
 ****** END OF FORCE_ESF COMPUTATION ******
     Check: negative starting charge=   -0.004436
     NEW-OLD atomic charge density approx. for the potential
     Check: negative starting charge=   -0.004431

     negative rho (up, down):  0.502E-02 0.000E+00
 ****** END OF ADD_ESF COMPUTATION ******

     total cpu time spent up to now is      575.6 secs

     per-process dynamical memory:    17.3 Mb

     Self-consistent Calculation

     iteration #  1     ecut=    25.00 Ry     beta=0.70
     Davidson diagonalization with overlap
     ethr =  1.00E-06,  avg # of iterations =  4.0

     negative rho (up, down):  0.471E-02 0.000E+00

     total cpu time spent up to now is      575.9 secs

     total energy              =     -34.85093075 Ry
     Harris-Foulkes estimate   =     -34.85108315 Ry
     estimated scf accuracy    <       0.00047091 Ry

     iteration #  2     ecut=    25.00 Ry     beta=0.70
     Davidson diagonalization with overlap
     ethr =  5.89E-06,  avg # of iterations =  2.0

     negative rho (up, down):  0.468E-02 0.000E+00

     total cpu time spent up to now is      576.2 secs

     total energy              =     -34.85096923 Ry
     Harris-Foulkes estimate   =     -34.85103931 Ry
     estimated scf accuracy    <       0.00012998 Ry

     iteration #  3     ecut=    25.00 Ry     beta=0.70
     Davidson diagonalization with overlap
     ethr =  1.62E-06,  avg # of iterations =  2.0

     negative rho (up, down):  0.465E-02 0.000E+00

     total cpu time spent up to now is      576.5 secs

     total energy              =     -34.85100458 Ry
     Harris-Foulkes estimate   =     -34.85101940 Ry
     estimated scf accuracy    <       0.00003608 Ry

     iteration #  4     ecut=    25.00 Ry     beta=0.70
     Davidson diagonalization with overlap
     ethr =  4.51E-07,  avg # of iterations =  2.0

     negative rho (up, down):  0.464E-02 0.000E+00

     total cpu time spent up to now is      576.7 secs

     End of self-consistent calculation

          k = 0.0000 0.0000 0.0000 (  6807 PWs)   bands (ev):

   -25.4291 -12.8017 -10.1059  -7.9203

!    total energy              =     -34.85101171 Ry
     Harris-Foulkes estimate   =     -34.85101161 Ry
     estimated scf accuracy    <       0.00000028 Ry

     convergence has been achieved in   4 iterations

     Forces acting on atoms (Ry/au):

     atom    1 type  1   force =     0.01044508    0.34308243   -0.07119315
     atom    2 type  2   force =     0.04557175    0.08302626    0.00220653
     atom    3 type  2   force =    -0.05993818    0.11287518    0.08211532

     Total force =     0.393617     Total SCF correction =     0.001022

     Entering Dynamics:    iteration =   198
                           time      =   0.1916 pico-seconds


ATOMIC_POSITIONS (angstrom)
O        5.019576397   5.339781311   5.062813746
H        4.311201802   4.747103066   5.370849038
H        5.464018619   4.728473481   4.368291918


     kinetic energy (Ekin) =     0.00809894 Ry
     temperature           =   426.24006623 K 
     Ekin + Etot (const)   =   -34.84291277 Ry
     Message from routine dynamics:
     Total linear momentum <> 0

     Linear momentum :   -0.0044903637    0.1629967553    0.1883716059

     Writing output data file ms2.save
 ****** END OF FORCE_ESF COMPUTATION ******
     Check: negative starting charge=   -0.004431
     NEW-OLD atomic charge density approx. for the potential
     Check: negative starting charge=   -0.004435

     negative rho (up, down):  0.482E-02 0.000E+00
 ****** END OF ADD_ESF COMPUTATION ******

     total cpu time spent up to now is      578.5 secs

     per-process dynamical memory:    17.3 Mb

     Self-consistent Calculation

     iteration #  1     ecut=    25.00 Ry     beta=0.70
     Davidson diagonalization with overlap
     ethr =  1.00E-06,  avg # of iterations =  4.0

     negative rho (up, down):  0.470E-02 0.000E+00

     total cpu time spent up to now is      578.9 secs

     total energy              =     -34.84438314 Ry
     Harris-Foulkes estimate   =     -34.84437424 Ry
     estimated scf accuracy    <       0.00010326 Ry

     iteration #  2     ecut=    25.00 Ry     beta=0.70
     Davidson diagonalization with overlap
     ethr =  1.29E-06,  avg # of iterations =  2.0

     negative rho (up, down):  0.467E-02 0.000E+00

     total cpu time spent up to now is      579.1 secs

     total energy              =     -34.84439171 Ry
     Harris-Foulkes estimate   =     -34.84440166 Ry
     estimated scf accuracy    <       0.00002614 Ry

     iteration #  3     ecut=    25.00 Ry     beta=0.70
     Davidson diagonalization with overlap
     ethr =  3.27E-07,  avg # of iterations =  2.0

     negative rho (up, down):  0.467E-02 0.000E+00

     total cpu time spent up to now is      579.4 secs

     total energy              =     -34.84439843 Ry
     Harris-Foulkes estimate   =     -34.84440186 Ry
     estimated scf accuracy    <       0.00001014 Ry

     iteration #  4     ecut=    25.00 Ry     beta=0.70
     Davidson diagonalization with overlap
     ethr =  1.27E-07,  avg # of iterations =  2.0

     negative rho (up, down):  0.467E-02 0.000E+00

     total cpu time spent up to now is      579.6 secs

     End of self-consistent calculation

          k = 0.0000 0.0000 0.0000 (  6807 PWs)   bands (ev):

   -25.4764 -12.7851 -10.1491  -7.9166

!    total energy              =     -34.84440033 Ry
     Harris-Foulkes estimate   =     -34.84440035 Ry
     estimated scf accuracy    <       0.00000009 Ry

     convergence has been achieved in   4 iterations

     Forces acting on atoms (Ry/au):

     atom    1 type  1   force =     0.01439256    0.35611011   -0.08002188
     atom    2 type  2   force =     0.03143860    0.07571543    0.00895661
     atom    3 type  2   force =    -0.05737248    0.11621891    0.08229219

     Total force =     0.404718     Total SCF correction =     0.000805

     Entering Dynamics:    iteration =   199
                           time      =   0.1925 pico-seconds


ATOMIC_POSITIONS (angstrom)
O        5.021420759   5.340216933   5.066598504
H        4.325318272   4.743349021   5.377646978
H        5.441827158   4.740011320   4.362581657


     kinetic energy (Ekin) =     0.00665913 Ry
     temperature           =   350.46382950 K 
     Ekin + Etot (const)   =   -34.83774121 Ry
     Message from routine dynamics:
     Total linear momentum <> 0

     Linear momentum :    0.0495099476    0.0340780970    0.1423843741

     Writing output data file ms2.save
 ****** END OF FORCE_ESF COMPUTATION ******
     Check: negative starting charge=   -0.004435
     NEW-OLD atomic charge density approx. for the potential
     Check: negative starting charge=   -0.004448

     negative rho (up, down):  0.474E-02 0.000E+00
 ****** END OF ADD_ESF COMPUTATION ******

     total cpu time spent up to now is      581.5 secs

     per-process dynamical memory:    17.3 Mb

     Self-consistent Calculation

     iteration #  1     ecut=    25.00 Ry     beta=0.70
     Davidson diagonalization with overlap
     ethr =  1.00E-06,  avg # of iterations =  4.0

     negative rho (up, down):  0.471E-02 0.000E+00

     total cpu time spent up to now is      581.8 secs

     total energy              =     -34.83925645 Ry
     Harris-Foulkes estimate   =     -34.83928937 Ry
     estimated scf accuracy    <       0.00013219 Ry

     iteration #  2     ecut=    25.00 Ry     beta=0.70
     Davidson diagonalization with overlap
     ethr =  1.65E-06,  avg # of iterations =  2.0

     negative rho (up, down):  0.470E-02 0.000E+00

     total cpu time spent up to now is      582.1 secs

     total energy              =     -34.83927254 Ry
     Harris-Foulkes estimate   =     -34.83931401 Ry
     estimated scf accuracy    <       0.00008535 Ry

     iteration #  3     ecut=    25.00 Ry     beta=0.70
     Davidson diagonalization with overlap
     ethr =  1.07E-06,  avg # of iterations =  2.0

     negative rho (up, down):  0.469E-02 0.000E+00

     total cpu time spent up to now is      582.4 secs

     total energy              =     -34.83929420 Ry
     Harris-Foulkes estimate   =     -34.83929422 Ry
     estimated scf accuracy    <       0.00000463 Ry

     iteration #  4     ecut=    25.00 Ry     beta=0.70
     Davidson diagonalization with overlap
     ethr =  5.79E-08,  avg # of iterations =  2.0

     negative rho (up, down):  0.470E-02 0.000E+00

     total cpu time spent up to now is      582.6 secs

     End of self-consistent calculation

          k = 0.0000 0.0000 0.0000 (  6807 PWs)   bands (ev):

   -25.5585 -12.8195 -10.1936  -7.9265

!    total energy              =     -34.83929480 Ry
     Harris-Foulkes estimate   =     -34.83929486 Ry
     estimated scf accuracy    <       0.00000010 Ry

     convergence has been achieved in   4 iterations

     Forces acting on atoms (Ry/au):

     atom    1 type  1   force =     0.00806215    0.37423033   -0.07762569
     atom    2 type  2   force =     0.02260599    0.07184321    0.01380584
     atom    3 type  2   force =    -0.04940478    0.11166914    0.07340371

     Total force =     0.415092     Total SCF correction =     0.000674

     Entering Dynamics:    iteration =   200
                           time      =   0.1935 pico-seconds


ATOMIC_POSITIONS (angstrom)
O        5.025414186   5.337551841   5.068155867
H        4.333911366   4.735100848   5.381018857
H        5.423733199   4.756970376   4.362401738


     kinetic energy (Ekin) =     0.00638675 Ry
     temperature           =   336.12878053 K 
     Ekin + Etot (const)   =   -34.83290806 Ry
     Message from routine dynamics:
     Total linear momentum <> 0

     Linear momentum :    0.1256387264   -0.0783726018    0.0649277090
 ****** END OF FORCE_ESF COMPUTATION ******
