96
Atoms. Timestep: 0
1 4.92184 4.99955 1.10607
2 5.87562 5.31968 0.882671
2 4.89414 4.11889 0.645414
1 0.087651 3.99797 0.245184
2 9.67555 3.23856 0.737637
2 0.340165 3.71655 9.21814
1 8.38818 2.573 3.96996
2 7.38874 2.34291 3.97124
2 8.68794 2.13782 4.79739
1 6.99828 7.16643 4.02219
2 7.74896 7.30105 3.40414
2 7.23197 6.2987 4.49938
1 4.30535 0.916065 2.3108
2 4.68159 1.45689 1.56489
2 4.4779 9.86373 2.16212
1 3.14062 6.90612 0.699556
2 2.41605 6.59745 1.28207
2 3.73301 6.08469 0.657627
1 7.1624 4.36166 7.67988
2 7.36135 3.41024 8.00031
2 7.41952 4.98991 8.45256
1 9.36564 1.3965 6.75559
2 9.81332 2.16155 7.15832
2 8.71664 1.12538 7.41768
1 4.89052 4.32576 3.84205
2 3.89376 4.30854 3.95064
2 4.94617 4.51425 2.85174
1 5.69164 1.71379 4.31048
2 5.22868 2.58155 4.362
2 5.11925 1.1763 3.6358
1 0.560959 0.04191 4.48207
2 1.22153 9.14244 4.55287
2 9.8315 0.016189 5.27461
1 9.12423 1.57913 1.43075
2 0.200064 1.3827 1.56565
2 8.94687 1.87921 2.37587
1 3.60233 9.72656 6.28367
2 4.48754 9.64862 5.86449
2 3.04926 9.0688 5.80336
1 7.29087 1.81607 9.09198
2 7.88001 1.75951 0.02152
2 7.24194 0.81395 8.91329
1 9.18314 7.75978 2.61797
2 0.075591 7.18752 2.47016
2 9.48355 8.60447 3.11903
1 0.87767 3.52006 7.51883
2 0.962603 4.13061 6.7713
2 1.69471 2.95669 7.60499
1 4.62668 4.48511 6.6691
2 5.38427 4.58313 7.20087
2 4.95972 4.66925 5.77441
1 6.88964 9.31587 5.70765
2 6.85941 8.51784 5.1155
2 6.3806 0.188753 5.26329
1 8.08052 4.96131 5.28832
2 8.06574 4.09021 4.78145
2 7.74923 4.80814 6.19755
1 3.25954 2.45214 7.63482
2 3.32317 1.53041 7.32282
2 3.80257 3.04928 7.02057
1 1.20123 5.99193 1.97923
2 0.666072 5.46199 1.26324
2 1.51867 5.2585 2.6437
1 1.65626 1.67144 2.5858
2 2.55835 1.39687 2.33422
2 1.33219 1.08924 3.37297
1 2.40391 7.92663 4.59916
2 2.08863 7.10383 5.01211
2 3.11255 7.72192 3.87463
1 6.67101 9.16954 8.28285
2 5.71095 9.06821 8.68062
2 6.54553 9.09399 7.29062
1 4.44039 8.03938 2.81419
2 5.24755 7.65412 3.17126
2 4.08828 7.45277 2.07593
1 1.15049 5.76826 5.84439
2 1.07629 5.94961 6.83796
2 0.18347 5.82068 5.59405
1 2.06166 4.19419 3.77712
2 1.88257 3.32656 3.24396
2 1.68341 4.11446 4.64607
1 7.55325 5.74269 0.194948
2 8.42061 5.23339 0.333538
2 7.74646 6.70205 0.233986
1 1.11835 6.61254 8.46938
2 0.435993 7.2427 8.80025
2 1.97268 6.7231 8.90825
1 4.03873 8.90136 8.96688
2 3.61664 8.11219 9.39391
2 3.66549 9.13899 8.06169
1 8.95403 8.32467 9.47681
2 8.12392 8.66407 9.0661
2 8.96316 8.41317 0.541945
1 4.85032 2.49478 0.151704
2 4.12691 2.45632 9.29897
2 5.64233 2.12865 9.55764
96
Atoms. Timestep: 1
1 4.92725 4.99809 1.10307
2 5.80913 5.31456 0.907208
2 4.87588 4.14662 0.668791
1 0.087973 4.00136 0.245462
2 9.67966 3.21269 0.714002
2 0.33007 3.69048 9.23812
1 8.38345 2.57031 3.97266
2 7.44828 2.36711 3.95278
2 8.7024 2.15453 4.77368
1 7.00052 7.16333 4.02289
2 7.72916 7.30189 3.41781
2 7.21578 6.34751 4.47492
1 4.30406 0.919387 2.3125
2 4.67944 1.40088 1.57529
2 4.49871 9.86641 2.12366
1 3.14151 6.90126 0.700929
2 2.42162 6.6227 1.26696
2 3.71534 6.13692 0.648754
1 7.16363 4.36103 7.68278
2 7.35402 3.47724 7.99731
2 7.4065 4.93254 8.41124
1 9.36564 1.39717 6.75642
2 9.80706 2.14958 7.15046
2 8.72182 1.12672 7.41108
1 4.89038 4.32571 3.84196
2 3.89458 4.30931 3.94947
2 4.94583 4.51443 2.8541
1 5.68784 1.71296 4.30739
2 5.24688 2.56063 4.36436
2 5.16357 1.2112 3.68319
1 0.561742 0.041337 4.48147
2 1.17239 9.17548 4.57746
2 9.86948 -0.00792441 5.25817
1 9.12799 1.58038 1.43858
2 0.193986 1.36649 1.49973
2 8.8917 1.87706 2.31744
1 3.60282 9.72522 6.28224
2 4.46611 9.65178 5.87535
2 3.06275 9.08703 5.81613
1 7.29421 1.80798 9.09551
2 7.86063 1.82126 0.00201954
2 7.2088 0.880104 8.87645
1 9.1809 7.76223 2.61874
2 0.0940834 7.21978 2.49069
2 9.50065 8.53418 3.08575
1 0.875835 3.51883 7.52122
2 1.0055 4.10383 6.77476
2 1.68117 3.00328 7.56483
1 4.62675 4.48533 6.66703
2 5.39899 4.58317 7.22408
2 4.94473 4.66508 5.78226
1 6.88939 9.31612 5.70772
2 6.84473 8.56415 5.11714
2 6.39849 0.138924 5.25807
1 8.0811 4.96175 5.28679
2 8.05404 4.11766 4.8362
2 7.75255 4.77498 6.16623
1 3.25951 2.45396 7.63539
2 3.34502 1.56183 7.29919
2 3.78145 2.98739 7.03599
1 1.20005 5.98567 1.97904
2 0.706901 5.50201 1.31638
2 1.49535 5.31532 2.59521
1 1.65412 1.67136 2.58726
2 2.53779 1.37536 2.36875
2 1.38717 1.11199 3.3167
1 2.40502 7.92927 4.59776
2 2.12665 7.09369 4.97267
2 3.0559 7.69112 3.93755
1 6.66633 9.16894 8.28259
2 5.78453 9.07523 8.64298
2 6.5474 9.09715 7.33552
1 4.43818 8.04068 2.8135
2 5.23681 7.62726 3.14139
2 4.1353 7.45855 2.11662
1 1.14493 5.76957 5.84903
2 1.11617 5.93884 6.7907
2 0.23039 5.81163 5.56959
1 2.06297 4.19338 3.77309
2 1.87694 3.37464 3.31342
2 1.66936 4.07782 4.63794
1 7.5536 5.74097 0.194983
2 8.3873 5.29001 0.328534
2 7.77444 6.67136 0.237878
1 1.11661 6.60947 8.46565
2 0.50131 7.24625 8.82916
2 1.93385 6.76885 8.93783
1 4.04271 8.90452 8.96845
2 3.58552 8.13747 9.31318
2 3.63502 9.06449 8.11731
1 8.95749 8.32246 9.47156
2 8.13002 8.66831 9.13701
2 8.90226 8.44309 0.554516
1 4.84908 2.49372 0.14753
2 4.16384 2.46164 9.34496
2 5.62505 2.14089 9.57708
96
Atoms. Timestep: 2
1 4.92749 4.99808 1.10309
2 5.80939 5.31362 0.905791
2 4.87537 4.14555 0.670993
1 0.0876341 4.00161 0.245753
2 9.68085 3.21099 0.711902
2 0.331915 3.69361 9.238
1 8.38318 2.57025 3.97286
2 7.44849 2.36484 3.95319
2 8.70398 2.15232 4.77202
1 7.00034 7.16331 4.02285
2 7.72938 7.30324 3.41857
2 7.21659 6.34786 4.47507
1 4.30396 0.919344 2.31245
2 4.67646 1.39986 1.57314
2 4.49641 9.86598 2.12322
1 3.14185 6.90129 0.700476
2 2.42005 6.62321 1.26431
2 3.71596 6.13697 0.651053
1 7.16376 4.36094 7.68292
2 7.3519 3.47717 7.99878
2 7.4041 4.93262 8.41206
1 9.36546 1.39714 6.75622
2 9.807 2.14965 7.14993
2 8.72186 1.12685 7.41116
1 4.88997 4.32561 3.84173
2 3.89689 4.31138 3.94604
2 4.94499 4.51476 2.86073
1 5.6879 1.71277 4.30781
2 5.25131 2.56276 4.36362
2 5.16414 1.21468 3.68027
1 0.561728 0.041015 4.48105
2 1.17324 9.17622 4.57954
2 9.87188 -0.00402373 5.25974
1 9.12786 1.58059 1.43846
2 0.193834 1.36719 1.50147
2 8.88967 1.8773 2.31679
1 3.60283 9.72509 6.28251
2 4.46585 9.65292 5.87481
2 3.06225 9.08888 5.81427
1 7.29445 1.80799 9.09552
2 7.86086 1.81935 0.00206082
2 7.20676 0.880485 8.87581
1 9.18087 7.76247 2.61866
2 0.0933455 7.21909 2.49024
2 9.5017 8.53387 3.08582
1 0.87563 3.51837 7.52113
2 1.00592 4.10695 6.7776
2 1.68408 3.00801 7.56773
1 4.62693 4.48529 6.66682
2 5.40013 4.58282 7.22259
2 4.94349 4.66501 5.78154
1 6.88879 9.31605 5.70759
2 6.84725 8.56498 5.11564
2 6.40356 0.140721 5.25467
1 8.08116 4.96203 5.28676
2 8.05602 4.11849 4.83503
2 7.75221 4.77349 6.16567
1 3.25942 2.45338 7.63555
2 3.34673 1.56289 7.29548
2 3.78164 2.99021 7.03944
1 1.19963 5.98535 1.97919
2 0.709138 5.49924 1.31636
2 1.49523 5.31688 2.59725
1 1.65436 1.67139 2.58742
2 2.53826 1.37497 2.37045
2 1.38569 1.11183 3.31607
1 2.40475 7.92931 4.59813
2 2.12729 7.09244 4.97083
2 3.05626 7.69364 3.93766
1 6.66631 9.16907 8.28338
2 5.78283 9.07376 8.6392
2 6.55226 9.09822 7.33564
1 4.43838 8.04051 2.8137
2 5.23727 7.62648 3.14018
2 4.1364 7.46107 2.11419
1 1.14465 5.76945 5.8493
2 1.11703 5.943 6.79022
2 0.229928 5.81174 5.57051
1 2.06332 4.193 3.77258
2 1.87563 3.37328 3.31536
2 1.66858 4.08123 4.63741
1 7.55364 5.74083 0.194999
2 8.38697 5.28918 0.328528
2 7.77551 6.67105 0.236332
1 1.11658 6.60966 8.46542
2 0.500464 7.24589 8.82852
2 1.9324 6.76748 8.94057
1 4.04312 8.90465 8.96823
2 3.58534 8.13934 9.31601
2 3.6332 9.06361 8.11799
1 8.95755 8.32217 9.47173
2 8.13069 8.66797 9.13562
2 8.90177 8.44552 0.554308
1 4.84896 2.49363 0.147441
2 4.16455 2.46181 9.34401
2 5.62623 2.14377 9.57691
96
Atoms. Timestep: 3
1 4.9279 4.99807 1.10313
2 5.80981 5.31206 0.903449
2 4.87453 4.14384 0.674557
1 0.0870743 4.00202 0.246234
2 9.68288 3.20823 0.708471
2 0.334947 3.69876 9.23784
1 8.38274 2.57014 3.97319
2 7.44883 2.36116 3.95388
2 8.70658 2.1486 4.76923
1 7.00002 7.16328 4.02275
2 7.72977 7.30539 3.41984
2 7.21786 6.34847 4.47537
1 4.30378 0.919268 2.31234
2 4.67154 1.39817 1.56962
2 4.49259 9.86527 2.12256
1 3.1424 6.90134 0.699704
2 2.41764 6.62402 1.26011
2 3.71695 6.13708 0.654642
1 7.16395 4.36078 7.68314
2 7.34858 3.47703 8.00114
2 7.40034 4.93283 8.41329
1 9.36515 1.3971 6.75588
2 9.80691 2.14974 7.14909
2 8.72194 1.127 7.41129
1 4.88934 4.32543 3.84146
2 3.89954 4.31463 3.9408
2 4.94409 4.51567 2.86921
1 5.68802 1.71246 4.30851
2 5.25854 2.56621 4.36238
2 5.16506 1.22025 3.67568
1 0.561687 0.0404813 4.48037
2 1.17468 9.17751 4.58299
2 9.87582 0.00240017 5.26225
1 9.12763 1.58094 1.43825
2 0.193563 1.36827 1.50433
2 8.88636 1.87763 2.31574
1 3.60284 9.72487 6.28295
2 4.46542 9.65481 5.87394
2 3.06144 9.09197 5.81121
1 7.29483 1.80801 9.09554
2 7.86125 1.81624 0.00211904
2 7.20351 0.881112 8.87474
1 9.18081 7.76287 2.61852
2 0.0920792 7.21791 2.48945
2 9.50349 8.53335 3.08592
1 0.875286 3.51762 7.52097
2 1.0067 4.11221 6.78244
2 1.68871 3.01572 7.57267
1 4.62724 4.48524 6.66648
2 5.40205 4.58224 7.2201
2 4.94144 4.66488 5.78034
1 6.88781 9.31593 5.70736
2 6.85146 8.5663 5.11325
2 6.41191 0.143599 5.24914
1 8.08127 4.96249 5.2867
2 8.05913 4.11984 4.83319
2 7.7517 4.77118 6.16478
1 3.25926 2.45241 7.63579
2 3.34951 1.5646 7.28956
2 3.78199 2.99467 7.04507
1 1.19892 5.98482 1.97944
2 0.71264 5.49483 1.31635
2 1.49503 5.31934 2.60047
1 1.65478 1.67144 2.58766
2 2.53911 1.37439 2.3733
2 1.38326 1.11156 3.31501
1 2.40431 7.92935 4.59875
2 2.1283 7.09045 4.96793
2 3.05679 7.69766 3.93783
1 6.66627 9.16929 8.28468
2 5.78012 9.07136 8.63308
2 6.56015 9.09985 7.33592
1 4.43873 8.04023 2.81401
2 5.23804 7.62524 3.13824
2 4.13822 7.46516 2.11029
1 1.14418 5.76925 5.84974
2 1.11838 5.94978 6.78941
2 0.229166 5.8119 5.57196
1 2.06392 4.19239 3.77179
2 1.87345 3.37121 3.31834
2 1.6672 4.08668 4.63647
1 7.55371 5.74061 0.195041
2 8.38642 5.28781 0.328492
2 7.77732 6.67052 0.233676
1 1.11654 6.60999 8.46505
2 0.498941 7.24518 8.82745
2 1.92991 6.76522 8.94523
1 4.04378 8.90488 8.96788
2 3.58515 8.14237 9.32066
2 3.63016 9.06226 8.11913
1 8.95766 8.32169 9.47202
2 8.13191 8.66748 9.13321
2 8.90087 8.44958 0.553942
1 4.84877 2.49349 0.147287
2 4.16564 2.46201 9.34253
2 5.6281 2.14843 9.5766
96
Atoms. Timestep: 4
1 4.92847 4.99805 1.1032
2 5.81039 5.30991 0.900225
2 4.87336 4.14152 0.679469
1 0.0863007 4.00258 0.246897
2 9.68574 3.20445 0.703731
2 0.339077 3.70589 9.23765
1 8.38213 2.56998 3.97366
2 7.44931 2.35616 3.95486
2 8.71021 2.14349 4.7653
1 6.99958 7.16324 4.02262
2 7.7303 7.30832 3.42159
2 7.21957 6.34934 4.47582
1 4.30351 0.919162 2.31218
2 4.66471 1.3958 1.56481
2 4.4873 9.86428 2.12172
1 3.14313 6.90141 0.698618
2 2.41449 6.62512 1.25448
2 3.71829 6.13728 0.659478
1 7.1642 4.36056 7.68346
2 7.3441 3.47687 8.00435
2 7.39523 4.93315 8.4149
1 9.36472 1.39703 6.75541
2 9.80681 2.14983 7.14793
2 8.72207 1.1272 7.41148
1 4.88855 4.32513 3.84134
2 3.90104 4.31887 3.93437
2 4.94376 4.51777 2.87634
1 5.68818 1.71206 4.30948
2 5.26855 2.57085 4.36073
2 5.16639 1.2278 3.66959
1 0.561615 0.0397365 4.47945
2 1.1767 9.17935 4.5877
2 9.88132 0.0113646 5.26563
1 9.12731 1.58142 1.43796
2 0.193163 1.36974 1.50827
2 8.8818 1.87809 2.31428
1 3.60286 9.72458 6.28354
2 4.46484 9.65744 5.8728
2 3.06035 9.09622 5.80701
1 7.29536 1.80803 9.09557
2 7.8618 1.81197 0.00217399
2 7.19906 0.881997 8.87328
1 9.18073 7.76343 2.61831
2 0.0902787 7.21625 2.48833
2 9.50603 8.53261 3.08605
1 0.874827 3.51657 7.52074
2 1.00772 4.11956 6.78931
2 1.69482 3.02628 7.57959
1 4.62767 4.48518 6.666
2 5.40472 4.58144 7.2166
2 4.93856 4.66467 5.77866
1 6.88644 9.31579 5.70702
2 6.85732 8.56805 5.11013
2 6.42347 0.147478 5.24171
1 8.08143 4.96314 5.28662
2 8.06335 4.12167 4.83072
2 7.75106 4.7681 6.16357
1 3.25905 2.45108 7.63611
2 3.35334 1.567 7.2815
2 3.78245 3.00069 7.05283
1 1.19792 5.98408 1.97977
2 0.717361 5.48884 1.31643
2 1.49476 5.32268 2.60482
1 1.65537 1.6715 2.58798
2 2.54031 1.37365 2.37729
2 1.37994 1.1112 3.31354
1 2.40369 7.92942 4.59962
2 2.12969 7.08775 4.96397
2 3.05747 7.70315 3.9381
1 6.66622 9.16959 8.28646
2 5.77654 9.06809 8.62469
2 6.57094 9.10205 7.33641
1 4.43922 8.03984 2.81444
2 5.23911 7.62359 3.13561
2 4.14075 7.47078 2.105
1 1.14353 5.76897 5.85037
2 1.12023 5.95909 6.78821
2 0.228124 5.81211 5.57394
1 2.06476 4.19154 3.7707
2 1.87041 3.36846 3.32238
2 1.66526 4.09416 4.63508
1 7.55382 5.74029 0.195105
2 8.38566 5.28588 0.328448
2 7.77984 6.66978 0.229928
1 1.11651 6.61045 8.46452
2 0.496762 7.24411 8.82594
2 1.92636 6.7621 8.95174
1 4.0447 8.90521 8.96741
2 3.58496 8.14655 9.32702
2 3.62596 9.06045 8.12078
1 8.95782 8.32102 9.47245
2 8.13367 8.66684 9.12981
2 8.89959 8.45522 0.553406
1 4.84851 2.49329 0.147064
2 4.1671 2.46222 9.34054
2 5.63061 2.15481 9.57619
96
Atoms. Timestep: 5
1 4.92921 4.99802 1.10329
2 5.81111 5.30717 0.896158
2 4.87191 4.13862 0.685694
1 0.0853231 4.00329 0.247734
2 9.68937 3.19977 0.69772
2 0.344186 3.71495 9.23747
1 8.38136 2.56976 3.97426
2 7.44993 2.34991 3.95616
2 8.71484 2.13709 4.76027
1 6.99902 7.16319 4.02243
2 7.73094 7.31195 3.42377
2 7.22168 6.35045 4.47642
1 4.30316 0.919027 2.31196
2 4.65599 1.39278 1.55877
2 4.48059 9.86305 2.12078
1 3.14405 6.9015 0.697222
2 2.41073 6.62649 1.24754
2 3.71997 6.13761 0.665495
1 7.1645 4.36026 7.68388
2 7.33853 3.4767 8.00834
2 7.38885 4.93359 8.41681
1 9.36417 1.39693 6.7548
2 9.80675 2.14992 7.14641
2 8.72226 1.1275 7.41176
1 4.88764 4.32469 3.84151
2 3.90016 4.32392 3.92732
2 4.94459 4.52157 2.87941
1 5.68838 1.71157 4.31069
2 5.28126 2.57654 4.35879
2 5.16812 1.23718 3.66221
1 0.56151 0.0387814 4.4783
2 1.17925 9.18174 4.59354
2 9.88841 0.0228778 5.26977
1 9.12691 1.58204 1.43758
2 0.192626 1.37162 1.51326
2 8.87604 1.87871 2.31239
1 3.60288 9.72422 6.28427
2 4.46415 9.66083 5.87143
2 3.05905 9.10158 5.80178
1 7.29604 1.80806 9.09562
2 7.86252 1.80658 0.00220004
2 7.19342 0.883153 8.87146
1 9.18062 7.76416 2.61805
2 0.0879352 7.21411 2.48686
2 9.50932 8.53163 3.08622
1 0.874287 3.51525 7.52044
2 1.00883 4.1289 6.79825
2 1.70206 3.03944 7.58843
1 4.62823 4.48509 6.66539
2 5.40813 4.58047 7.21209
2 4.93484 4.66439 5.77653
1 6.88468 9.31562 5.70656
2 6.86473 8.57018 5.10644
2 6.43815 0.152237 5.23267
1 8.08165 4.96396 5.2865
2 8.06866 4.124 4.82766
2 7.75032 4.76428 6.16205
1 3.2588 2.4494 7.63651
2 3.35813 1.57014 7.27144
2 3.78297 3.00813 7.06266
1 1.19665 5.98314 1.98019
2 0.723218 5.48134 1.31665
2 1.49443 5.3269 2.6102
1 1.65612 1.67158 2.58839
2 2.54186 1.3728 2.3824
2 1.37579 1.11074 3.31166
1 2.4029 7.9295 4.60071
2 2.13148 7.0844 4.959
2 3.0583 7.71007 3.9385
1 6.66616 9.16997 8.2887
2 5.77224 9.064 8.61414
2 6.58446 9.1048 7.33722
1 4.43986 8.03935 2.81498
2 5.24048 7.62156 3.13231
2 4.14397 7.4779 2.09842
1 1.14269 5.76862 5.85117
2 1.12258 5.97083 6.78655
2 0.226803 5.81236 5.57644
1 2.06584 4.19047 3.76933
2 1.86659 3.36507 3.32748
2 1.66283 4.10362 4.6332
1 7.55396 5.7399 0.195187
2 8.38468 5.2834 0.328419
2 7.78308 6.66879 0.225116
1 1.11648 6.61105 8.46385
2 0.493938 7.24269 8.82401
2 1.92174 6.75813 8.96
1 4.04586 8.90561 8.96682
2 3.58483 8.15187 9.335
2 3.62067 9.05823 8.12293
1 8.95803 8.32016 9.473
2 8.13596 8.66605 9.12547
2 8.89796 8.46241 0.552668
1 4.84818 2.49303 0.14677
2 4.16891 2.46239 9.33807
2 5.63372 2.16282 9.57573
96
Atoms. Timestep: 6
1 4.9301 4.99799 1.1034
2 5.81195 5.30387 0.891287
2 4.8702 4.13523 0.69317
1 0.0841535 4.00415 0.248736
2 9.69373 3.1943 0.69049
2 0.350122 3.72586 9.23735
1 8.38042 2.56947 3.97499
2 7.45067 2.34253 3.95778
2 8.72045 2.12955 4.75415
1 6.99835 7.16315 4.0222
2 7.73165 7.3162 3.42631
2 7.22413 6.3518 4.47714
1 4.30273 0.918869 2.31167
2 4.64541 1.38911 1.55162
2 4.47251 9.86159 2.11983
1 3.14513 6.9016 0.695523
2 2.40651 6.62811 1.23947
2 3.72197 6.13809 0.67261
1 7.16484 4.35988 7.68441
2 7.33197 3.47653 8.01304
2 7.38128 4.93416 8.41897
1 9.3635 1.3968 6.75405
2 9.8068 2.14998 7.14448
2 8.72251 1.12794 7.41213
1 4.88662 4.3241 3.842
2 3.89647 4.3296 3.92006
2 4.94697 4.52725 2.87756
1 5.68863 1.71102 4.31211
2 5.29656 2.5831 4.35668
2 5.17029 1.24822 3.6538
1 0.561365 0.0376185 4.47695
2 1.18229 9.18467 4.60036
2 9.8971 0.0369463 5.27451
1 9.12643 1.58279 1.43713
2 0.191943 1.37392 1.51925
2 8.86913 1.87953 2.31004
1 3.6029 9.7238 6.28513
2 4.46335 9.66498 5.86992
2 3.05762 9.10793 5.79564
1 7.29686 1.80809 9.09568
2 7.86341 1.80012 0.00216625
2 7.18661 0.884595 8.86934
1 9.18049 7.76506 2.61775
2 0.0850386 7.21151 2.485
2 9.51336 8.5304 3.08644
1 0.873705 3.51369 7.52009
2 1.00981 4.14013 6.80926
2 1.71006 3.05488 7.59905
1 4.62891 4.48498 6.66466
2 5.41228 4.57936 7.20656
2 4.93025 4.66401 5.77395
1 6.88256 9.31545 5.70596
2 6.8736 8.57258 5.10239
2 6.45581 0.157734 5.22236
1 8.08191 4.96496 5.28634
2 8.07503 4.12681 4.82407
2 7.74953 4.75978 6.16022
1 3.25852 2.44739 7.63697
2 3.3638 1.57407 7.25951
2 3.78344 3.01683 7.07445
1 1.19512 5.98198 1.98069
2 0.730107 5.47242 1.3171
2 1.49405 5.33194 2.61655
1 1.65704 1.67165 2.58889
2 2.54374 1.37187 2.38861
2 1.37089 1.1102 3.30939
1 2.40195 7.9296 4.60204
2 2.13368 7.08046 4.95309
2 3.05928 7.71837 3.93907
1 6.66608 9.17043 8.29137
2 5.7674 9.05921 8.60158
2 6.60048 9.10809 7.33845
1 4.44064 8.03875 2.81561
2 5.24212 7.61921 3.12842
2 4.14786 7.48648 2.09068
1 1.14166 5.76819 5.85215
2 1.12542 5.98487 6.78436
2 0.225208 5.81264 5.57943
1 2.06714 4.18919 3.7677
2 1.86204 3.3611 3.33361
2 1.65998 4.115 4.6308
1 7.55413 5.73942 0.195283
2 8.38347 5.28039 0.328436
2 7.787 6.66755 0.219274
1 1.11646 6.61178 8.46304
2 0.490488 7.24091 8.82164
2 1.91604 6.75334 8.96985
1 4.04725 8.9061 8.96612
2 3.5848 8.1583 9.3445
2 3.61441 9.05565 8.12558
1 8.95828 8.31912 9.47368
2 8.13877 8.66511 9.12024
2 8.89603 8.47104 0.551696
1 4.84779 2.49273 0.146401
2 4.17105 2.46244 9.33514
2 5.63736 2.17235 9.57531
96
Atoms. Timestep: 7
1 4.93114 4.99794 1.10354
2 5.81289 5.30005 0.885648
2 4.86825 4.1314 0.701812
1 0.0828065 4.00514 0.249891
2 9.69875 3.1882 0.682102
2 0.356707 3.73854 9.23732
1 8.37933 2.5691 3.97586
2 7.45155 2.33415 3.95975
2 8.72699 2.12107 4.74699
1 6.99759 7.1631 4.02192
2 7.73239 7.321 3.42916
2 7.22687 6.35337 4.47799
1 4.30223 0.91869 2.31129
2 4.63304 1.38483 1.54349
2 4.46316 9.85992 2.11898
1 3.14636 6.90172 0.693527
2 2.40199 6.62996 1.23046
2 3.72426 6.13877 0.680714
1 7.16521 4.35942 7.68505
2 7.32453 3.47637 8.01834
2 7.3726 4.93486 8.42131
1 9.36272 1.39663 6.75315
2 9.80699 2.15 7.14211
2 8.72283 1.12858 7.41264
1 4.88545 4.32337 3.8427
2 3.89057 4.33572 3.91273
2 4.95094 4.53449 2.8722
1 5.68892 1.71042 4.31372
2 5.31433 2.59033 4.35452
2 5.17286 1.26069 3.64465
1 0.561173 0.0362523 4.47541
2 1.18576 9.18813 4.60797
2 9.90745 0.0535632 5.27968
1 9.12586 1.58367 1.4366
2 0.191103 1.37666 1.52621
2 8.86113 1.88059 2.30722
1 3.60291 9.72332 6.28611
2 4.46248 9.66988 5.86835
2 3.05613 9.11515 5.78873
1 7.29781 1.80813 9.09575
2 7.86447 1.79265 0.00203817
2 7.17864 0.886339 8.86697
1 9.18034 7.76612 2.6174
2 0.0815787 7.20846 2.48274
2 9.51818 8.52891 3.08671
1 0.873122 3.51191 7.51968
2 1.01047 4.15309 6.82236
2 1.7184 3.0722 7.61129
1 4.6297 4.48483 6.66382
2 5.41714 4.57815 7.19998
2 4.92477 4.6635 5.77094
1 6.88007 9.31528 5.7052
2 6.88375 8.57516 5.0982
2 6.47623 0.1638 5.21119
1 8.08223 4.96612 5.28615
2 8.08239 4.13009 4.82001
2 7.74873 4.75466 6.1581
1 3.25823 2.44508 7.63749
2 3.37023 1.57886 7.2459
2 3.78379 3.0266 7.08808
1 1.19332 5.98062 1.98124
2 0.737903 5.46218 1.31788
2 1.49363 5.33779 2.62375
1 1.6581 1.67173 2.58948
2 2.54594 1.37093 2.39586
2 1.36532 1.10957 3.30677
1 2.40084 7.92972 4.60357
2 2.13632 7.07603 4.9463
2 3.06041 7.72798 3.93986
1 6.666 9.17097 8.29442
2 5.76224 9.0538 8.58721
2 6.6187 9.1119 7.34021
1 4.44153 8.03803 2.81632
2 5.24401 7.6166 3.12399
2 4.15241 7.49645 2.08193
1 1.14044 5.76769 5.85332
2 1.12876 6.00105 6.78156
2 0.223346 5.81294 5.58292
1 2.06866 4.18771 3.76581
2 1.85684 3.35662 3.34077
2 1.65678 4.12824 4.62781
1 7.55434 5.73886 0.195388
2 8.38202 5.27685 0.328534
2 7.7916 6.66603 0.212445
1 1.11644 6.61265 8.4621
2 0.486437 7.23878 8.81886
2 1.90928 6.74777 8.98113
1 4.04886 8.90665 8.96531
2 3.58494 8.16579 9.35536
2 3.60727 9.05279 8.12872
1 8.95856 8.31789 9.47448
2 8.14209 8.66401 9.1142
2 8.89386 8.48104 0.550453
1 4.84734 2.49239 0.145952
2 4.1735 2.46232 9.33179
2 5.64145 2.18325 9.57499
96
Atoms. Timestep: 8
1 4.93234 4.99787 1.10371
2 5.8139 5.29574 0.879273
2 4.86609 4.12722 0.711509
1 0.0812987 4.00627 0.251186
2 9.70434 3.18161 0.672635
2 0.363741 3.75286 9.23741
1 8.37808 2.56863 3.97686
2 7.45254 2.32493 3.96212
2 8.73442 2.11183 4.73883
1 6.99675 7.16307 4.02159
2 7.73313 7.32622 3.43222
2 7.22983 6.35514 4.47893
1 4.30167 0.918496 2.31081
2 4.61896 1.37994 1.53452
2 4.45265 9.85808 2.11834
1 3.14773 6.90185 0.691246
2 2.39735 6.63203 1.22073
2 3.72682 6.13969 0.689675
1 7.1656 4.35887 7.68582
2 7.31634 3.47624 8.02416
2 7.36293 4.93571 8.42375
1 9.36182 1.39642 6.75209
2 9.80741 2.14995 7.13922
2 8.72324 1.12947 7.41329
1 4.88406 4.32257 3.84342
2 3.88392 4.34212 3.90528
2 4.95627 4.54263 2.86638
1 5.68927 1.70981 4.31547
2 5.33435 2.59801 4.35247
2 5.17581 1.27435 3.63506
1 0.560929 0.0346898 4.47371
2 1.18959 9.19207 4.61616
2 9.91947 0.0726994 5.28506
1 9.12522 1.58467 1.436
2 0.190096 1.37987 1.53407
2 8.85211 1.88193 2.30392
1 3.60292 9.72279 6.28718
2 4.46158 9.67554 5.86681
2 3.05468 9.12308 5.7812
1 7.29888 1.80816 9.09583
2 7.86571 1.78425 0.00177919
2 7.16955 0.888402 8.86443
1 9.18017 7.76736 2.61701
2 0.0775456 7.20499 2.48005
2 9.52375 8.52713 3.08704
1 0.872577 3.50996 7.51923
2 1.0106 4.16758 6.83753
2 1.72667 3.09093 7.62491
1 4.63062 4.48464 6.66288
2 5.4227 4.57689 7.19235
2 4.91836 4.66283 5.76751
1 6.87724 9.31514 5.70426
2 6.89498 8.57782 5.0941
2 6.49915 0.170251 5.19957
1 8.08261 4.96744 5.28592
2 8.09069 4.13382 4.81555
2 7.74796 4.74899 6.1557
1 3.25796 2.44251 7.63808
2 3.37732 1.58454 7.23081
2 3.78392 3.03724 7.10338
1 1.19128 5.97903 1.98184
2 0.746454 5.45074 1.31906
2 1.4932 5.34438 2.63168
1 1.65929 1.67179 2.59016
2 2.54843 1.37004 2.40414
2 1.3592 1.10887 3.30381
1 2.39959 7.92988 4.60529
2 2.1394 7.07118 4.93872
2 3.06169 7.73882 3.94095
1 6.66591 9.17159 8.29781
2 5.75698 9.0479 8.57125
2 6.63881 9.11619 7.3426
1 4.44254 8.03721 2.81711
2 5.24614 7.61381 3.11909
2 4.15759 7.50773 2.07234
1 1.13904 5.76711 5.85467
2 1.13258 6.01916 6.77807
2 0.221222 5.81324 5.58689
1 2.07038 4.18604 3.76368
2 1.85108 3.35169 3.34894
2 1.65333 4.14323 4.62418
1 7.55458 5.73822 0.195496
2 8.38032 5.27279 0.328752
2 7.79683 6.66421 0.204678
1 1.11645 6.61364 8.46104
2 0.481818 7.23631 8.81568
2 1.90145 6.74147 8.99365
1 4.05067 8.90727 8.96441
2 3.58531 8.17429 9.36742
2 3.5994 9.0497 8.13236
1 8.95887 8.31649 9.4754
2 8.14589 8.66274 9.10742
2 8.89151 8.4923 0.548901
1 4.84684 2.49202 0.145419
2 4.17624 2.46193 9.32805
2 5.64591 2.19536 9.57485
96
Atoms. Timestep: 9
1 4.9337 4.99777 1.10393
2 5.81493 5.29099 0.872201
2 4.86377 4.1228 0.722134
1 0.0796484 4.00753 0.252607
2 9.71042 3.17469 0.66218
2 0.371005 3.76868 9.23767
1 8.37668 2.56805 3.97799
2 7.45363 2.315 3.96492
2 8.74266 2.10203 4.72974
1 6.99584 7.16306 4.02122
2 7.7338 7.33175 3.4354
2 7.23294 6.35709 4.47994
1 4.30103 0.918291 2.31022
2 4.60327 1.37449 1.52488
2 4.4411 9.8561 2.11804
1 3.14922 6.902 0.688688
2 2.39277 6.63428 1.21055
2 3.72961 6.1409 0.699342
1 7.16599 4.35823 7.68672
2 7.30755 3.47614 8.0304
2 7.3524 4.93669 8.42622
1 9.36081 1.39615 6.75086
2 9.80809 2.14981 7.13578
2 8.72375 1.13069 7.41413
1 4.88238 4.32174 3.84397
2 3.87816 4.34858 3.89758
2 4.96257 4.55091 2.86328
1 5.68968 1.70922 4.31734
2 5.35637 2.60589 4.35065
2 5.17905 1.28893 3.62536
1 0.560625 0.0329419 4.4719
2 1.19371 9.19645 4.62471
2 9.93319 0.0942949 5.29042
1 9.1245 1.58578 1.43533
2 0.18891 1.38358 1.54277
2 8.84217 1.88362 2.30009
1 3.60292 9.72223 6.28832
2 4.46067 9.68192 5.86539
2 3.05337 9.13156 5.77321
1 7.30008 1.8082 9.09592
2 7.86714 1.77501 0.00135275
2 7.15938 0.890803 8.86178
1 9.17998 7.76876 2.6166
2 0.0729305 7.20111 2.47689
2 9.53009 8.52505 3.08744
1 0.872105 3.50788 7.51876
2 1.00999 4.18336 6.85472
2 1.73452 3.11054 7.63959
1 4.63164 4.4844 6.66185
2 5.42892 4.57563 7.18364
2 4.911 4.66194 5.7637
1 6.8741 9.31503 5.70313
2 6.90704 8.58046 5.0903
2 6.5242 0.176895 5.1879
1 8.08305 4.96891 5.28564
2 8.09985 4.13798 4.81076
2 7.74727 4.74287 6.15304
1 3.25772 2.43971 7.63871
2 3.3849 1.59114 7.21447
2 3.78372 3.04851 7.12014
1 1.18901 5.97722 1.98248
2 0.755588 5.43823 1.32076
2 1.49277 5.35165 2.64021
1 1.6606 1.67183 2.59094
2 2.5512 1.36929 2.41337
2 1.35264 1.10807 3.30056
1 2.39821 7.93008 4.6072
2 2.14295 7.06603 4.93044
2 3.06311 7.7508 3.94238
1 6.66583 9.17228 8.30149
2 5.75182 9.04165 8.55402
2 6.66042 9.12091 7.34569
1 4.44365 8.03628 2.81796
2 5.24848 7.6109 3.11383
2 4.16337 7.52023 2.06207
1 1.13745 5.76646 5.85622
2 1.13688 6.03899 6.7738
2 0.218841 5.81352 5.59132
1 2.07231 4.1842 3.76133
2 1.84486 3.3464 3.35809
2 1.64974 4.15988 4.61987
1 7.55485 5.73749 0.1956
2 8.37837 5.26823 0.329135
2 7.80268 6.66206 0.196037
1 1.11647 6.61478 8.45987
2 0.47667 7.23351 8.8121
2 1.89259 6.73449 9.00717
1 4.05268 8.90793 8.96342
2 3.58598 8.18372 9.38047
2 3.59094 9.04648 8.13648
1 8.95918 8.31491 9.47643
2 8.15015 8.66131 9.09999
2 8.88905 8.50468 0.547005
1 4.84629 2.49162 0.144799
2 4.17925 2.46118 9.32396
2 5.65065 2.20848 9.57498
96
Atoms. Timestep: 10
1 4.93521 4.99764 1.10421
2 5.81594 5.28587 0.864477
2 4.8613 4.11822 0.733552
1 0.0778748 4.00892 0.254141
2 9.71688 3.16762 0.650841
2 0.378274 3.78584 9.2381
1 8.37514 2.56735 3.97924
2 7.4548 2.30452 3.9682
2 8.75163 2.09189 4.7198
1 6.99488 7.16307 4.0208
2 7.73439 7.33748 3.43862
2 7.23614 6.35918 4.48101
1 4.30032 0.918079 2.30951
2 4.58612 1.36849 1.51473
2 4.42867 9.85402 2.11819
1 3.15082 6.90215 0.685868
2 2.3884 6.63669 1.20015
2 3.73261 6.14242 0.709544
1 7.16638 4.35749 7.68776
2 7.29832 3.47608 8.03696
2 7.34115 4.9378 8.42866
1 9.3597 1.39582 6.74947
2 9.80912 2.14957 7.13171
2 8.72437 1.13228 7.41515
1 4.88035 4.32092 3.84422
2 3.87453 4.35486 3.88958
2 4.96951 4.55878 2.86503
1 5.69018 1.70867 4.31929
2 5.38004 2.61374 4.3492
2 5.18249 1.30413 3.61586
1 0.560253 0.0310238 4.46999
2 1.19802 9.20119 4.63338
2 9.94862 0.118248 5.29549
1 9.12371 1.587 1.4346
2 0.187535 1.38781 1.55224
2 8.83138 1.8857 2.29573
1 3.60291 9.72164 6.28953
2 4.4598 9.68902 5.8642
2 3.05231 9.14038 5.76493
1 7.30138 1.80824 9.09602
2 7.86876 1.765 0.000723801
2 7.14819 0.893557 8.85912
1 9.17977 7.77034 2.61618
2 0.0677269 7.19688 2.47325
2 9.53719 8.52263 3.08792
1 0.871732 3.50572 7.51827
2 1.00851 4.20014 6.87383
2 1.74163 3.13046 7.655
1 4.63278 4.4841 6.66075
2 5.43579 4.57442 7.17383
2 4.90267 4.66079 5.75954
1 6.87068 9.31497 5.7018
2 6.91964 8.58295 5.087
2 6.55097 0.18354 5.17655
1 8.08356 4.97053 5.2853
2 8.10978 4.14255 4.80573
2 7.7467 4.73639 6.15014
1 3.25755 2.43671 7.6394
2 3.39284 1.59866 7.19713
2 3.78312 3.0602 7.13813
1 1.18652 5.9752 1.98314
2 0.765115 5.42481 1.32304
2 1.49238 5.35954 2.64921
1 1.66201 1.67185 2.59182
2 2.55422 1.36876 2.42351
2 1.34575 1.10718 3.29706
1 2.3967 7.93032 4.60926
2 2.14696 7.06065 4.92158
2 3.0647 7.7638 3.94422
1 6.66576 9.17303 8.30542
2 5.74699 9.0352 8.53585
2 6.6831 9.12602 7.34953
1 4.44484 8.03523 2.81885
2 5.25101 7.60798 3.1083
2 4.16973 7.53381 2.05131
1 1.13568 5.76575 5.85795
2 1.14164 6.06027 6.76869
2 0.216208 5.81377 5.59621
1 2.07441 4.18221 3.75879
2 1.83828 3.34084 3.36818
2 1.64612 4.17803 4.61481
1 7.55516 5.73669 0.195693
2 8.37617 5.26317 0.32973
2 7.80911 6.65954 0.186594
1 1.1165 6.61604 8.4586
2 0.471039 7.2304 8.80814
2 1.88274 6.72693 9.02146
1 4.05487 8.90864 8.96236
2 3.58699 8.19397 9.3943
2 3.58204 9.04321 8.14104
1 8.9595 8.31315 9.47757
2 8.15484 8.65969 9.09201
2 8.88658 8.51806 0.544734
1 4.84568 2.4912 0.144088
2 4.18251 2.45998 9.31955
2 5.65559 2.22242 9.57545
96
Atoms. Timestep: 11
1 4.93688 4.99748 1.10455
2 5.81692 5.28042 0.856166
2 4.85873 4.11357 0.745627
1 0.0759981 4.01043 0.255774
2 9.7236 3.16054 0.638736
2 0.38532 3.80415 9.23873
1 8.37348 2.56651 3.98062
2 7.45604 2.29363 3.97201
2 8.76126 2.0816 4.70912
1 6.99388 7.1631 4.02034
2 7.73484 7.34328 3.44177
2 7.23936 6.36139 4.4821
1 4.29954 0.917865 2.30867
2 4.56769 1.36198 1.50425
2 4.41552 9.85186 2.11889
1 3.15251 6.90231 0.682798
2 2.38441 6.63925 1.18981
2 3.73582 6.1443 0.720095
1 7.16674 4.35666 7.68895
2 7.28883 3.47607 8.04375
2 7.32934 4.93904 8.431
1 9.35849 1.39542 6.74789
2 9.81052 2.14921 7.12698
2 8.72509 1.13433 7.41637
1 4.87797 4.32013 3.84414
2 3.87343 4.36071 3.88134
2 4.97693 4.56603 2.87207
1 5.69079 1.7082 4.32129
2 5.40494 2.62133 4.34821
2 5.18597 1.31966 3.60685
1 0.559808 0.0289555 4.46803
2 1.20242 9.20617 4.64194
2 9.96575 0.144404 5.3
1 9.12286 1.58832 1.4338
2 0.185962 1.39259 1.56241
2 8.81984 1.88822 2.29081
1 3.60289 9.72105 6.29077
2 4.459 9.69677 5.86332
2 3.05159 9.14933 5.75651
1 7.30278 1.80827 9.09612
2 7.87055 1.75435 -0.000137525
2 7.13602 0.896674 8.85652
1 9.17955 7.77209 2.61574
2 0.0619319 7.19232 2.46909
2 9.54503 8.51987 3.08848
1 0.871475 3.50353 7.5178
2 1.00606 4.21761 6.89474
2 1.7478 3.15009 7.6707
1 4.63402 4.48374 6.65957
2 5.44325 4.57329 7.16292
2 4.89334 4.65934 5.75505
1 6.86702 9.31498 5.70028
2 6.93245 8.58521 5.08433
2 6.57897 0.190002 5.16584
1 8.08413 4.97229 5.28491
2 8.12038 4.14749 4.80053
2 7.74632 4.72965 6.14703
1 3.25746 2.43355 7.64014
2 3.40097 1.60708 7.17907
2 3.78203 3.07207 7.15707
1 1.18383 5.97294 1.98381
2 0.774827 5.41062 1.32598
2 1.49205 5.36797 2.65852
1 1.66351 1.67183 2.5928
2 2.55748 1.36853 2.43449
2 1.33869 1.10618 3.29334
1 2.39508 7.93061 4.61146
2 2.15145 7.05517 4.91225
2 3.06643 7.77772 3.94652
1 6.66572 9.17386 8.30954
2 5.74265 9.02868 8.51713
2 6.7064 9.13144 7.35415
1 4.44611 8.03409 2.81978
2 5.25372 7.60512 3.10259
2 4.17664 7.54833 2.04025
1 1.13371 5.76497 5.85987
2 1.14684 6.08271 6.7627
2 0.213325 5.81397 5.60157
1 2.07669 4.18011 3.75606
2 1.83147 3.33509 3.37918
2 1.64258 4.19752 4.60899
1 7.55551 5.73581 0.195767
2 8.37369 5.25765 0.330585
2 7.81608 6.65665 0.176435
1 1.11655 6.61743 8.45724
2 0.464982 7.227 8.80382
2 1.87198 6.71884 9.03628