
     Program PWSCF v.5.0.2 (svn rev. 9392) starts on 11Feb2015 at 18:14:21 

     This program is part of the open-source Quantum ESPRESSO suite
     for quantum simulation of materials; please cite
         "P. Giannozzi et al., J. Phys.:Condens. Matter 21 395502 (2009);
          URL http://www.quantum-espresso.org", 
     in publications or presentations arising from this work. More details at
     http://www.quantum-espresso.org/quote.php

     Parallel version (MPI), running on    20 processors
     R & G space division:  proc/nbgrp/npool/nimage =      20

     Current dimensions of program PWSCF are:
     Max number of different atomic species (ntypx) = 10
     Max number of k-points (npk) =  40000
     Max angular momentum in pseudopotentials (lmaxx) =  3
     Waiting for input...
     Reading input from standard input

     gamma-point specific algorithms are used
 XXXXXXXXXX Plain mechanical coupling execution XXXXXXXX

     Subspace diagonalization in iterative solution of the eigenvalue problem:
     a serial algorithm will be used


     Parallelization info
     --------------------
     sticks:   dense  smooth     PW     G-vecs:    dense   smooth      PW
     Min         344     136     33                21604     5436     674
     Max         346     138     36                21610     5470     686
     Sum        6909    2757    681               432145   109127   13613
     Tot        3455    1379    341


     Title: 
     QMMM                                                                       


     bravais-lattice index     =            1
     lattice parameter (alat)  =      18.6422  a.u.
     unit-cell volume          =    6478.7077 (a.u.)^3
     number of atoms/cell      =            3
     number of atomic types    =            2
     number of electrons       =         8.00
     number of Kohn-Sham states=            4
     kinetic-energy cutoff     =      25.0000  Ry
     charge density cutoff     =     250.0000  Ry
     convergence threshold     =      1.0E-06
     mixing beta               =       0.7000
     number of iterations used =            8  plain     mixing
     Exchange-correlation      =  SLA  PW   PBE  PBE ( 1 4 3 4 0)
     EXX-fraction              =        0.00
     nstep                     =          200


     celldm(1)=  18.642156  celldm(2)=   0.000000  celldm(3)=   0.000000
     celldm(4)=   0.000000  celldm(5)=   0.000000  celldm(6)=   0.000000

     crystal axes: (cart. coord. in units of alat)
               a(1) = (   1.000000   0.000000   0.000000 )  
               a(2) = (   0.000000   1.000000   0.000000 )  
               a(3) = (   0.000000   0.000000   1.000000 )  

     reciprocal axes: (cart. coord. in units 2 pi/alat)
               b(1) = (  1.000000  0.000000  0.000000 )  
               b(2) = (  0.000000  1.000000  0.000000 )  
               b(3) = (  0.000000  0.000000  1.000000 )  


     PseudoPot. # 1 for O  read from file:
     pseudo/O.pbe-van_bm.UPF
     MD5 check sum: ca2828d9fb1f294809e918903b7648d1
     Pseudo is Ultrasoft, Zval =  6.0
     Generated by new atomic code, or converted to UPF format
     Using radial grid of  737 points,  4 beta functions with: 
                l(1) =   0
                l(2) =   0
                l(3) =   1
                l(4) =   1
     Q(r) pseudized with  8 coefficients,  rinner =    0.800   0.800   0.800


     PseudoPot. # 2 for H  read from file:
     pseudo/H.pbe-van_ak.UPF
     MD5 check sum: 077eb6d537518a38cb46c6de387227b7
     Pseudo is Ultrasoft, Zval =  1.0
     Generated by new atomic code, or converted to UPF format
     Using radial grid of  615 points,  1 beta functions with: 
                l(1) =   0
     Q(r) pseudized with  8 coefficients,  rinner =    0.800

     atomic species   valence    mass     pseudopotential
        O              6.00    16.00000     O ( 1.00)
        H              1.00     1.00000     H ( 1.00)

     No symmetry found



   Cartesian axes

     site n.     atom                  positions (alat units)
         1           O   tau(   1) = (   0.5317997   0.4942128   0.5297931  )
         2           H   tau(   2) = (   0.4307598   0.4924671   0.5408002  )
         3           H   tau(   3) = (   0.5374405   0.5133201   0.4294068  )

     number of k points=     1
                       cart. coord. in units 2pi/alat
        k(    1) = (   0.0000000   0.0000000   0.0000000), wk =   2.0000000

     Dense  grid:   216073 G-vectors     FFT dimensions: (  96,  96,  96)

     Smooth grid:    54564 G-vectors     FFT dimensions: (  60,  60,  60)

     Largest allocated arrays     est. size (Mb)     dimensions
        Kohn-Sham Wavefunctions         0.02 Mb     (    339,    4)
        NL pseudopotentials             0.05 Mb     (    339,   10)
        Each V/rho on FFT grid          0.70 Mb     (  46080)
        Each G-vector array             0.08 Mb     (  10805)
        G-vector shells                 0.01 Mb     (   1570)
     Largest temporary arrays     est. size (Mb)     dimensions
        Auxiliary wavefunctions         0.04 Mb     (    339,   16)
        Each subspace H/S matrix        0.00 Mb     (  16,  16)
        Each <psi_i|beta_j> matrix      0.00 Mb     (     10,    4)
        Arrays for rho mixing           5.63 Mb     (  46080,   8)

     Initial potential from superposition of free atoms
     Check: negative starting charge=   -0.004447

     starting charge    7.99998, renormalised to    8.00000

     negative rho (up, down):  0.445E-02 0.000E+00
     Starting wfc are    6 randomized atomic wfcs

     total cpu time spent up to now is        0.6 secs

     per-process dynamical memory:    14.8 Mb

     Self-consistent Calculation

     iteration #  1     ecut=    25.00 Ry     beta=0.70
     Davidson diagonalization with overlap
     ethr =  1.00E-02,  avg # of iterations =  2.0

     negative rho (up, down):  0.246E-02 0.000E+00

     total cpu time spent up to now is        0.9 secs

     total energy              =     -34.20971676 Ry
     Harris-Foulkes estimate   =     -34.50948639 Ry
     estimated scf accuracy    <       0.41411932 Ry

     iteration #  2     ecut=    25.00 Ry     beta=0.70
     Davidson diagonalization with overlap
     ethr =  5.18E-03,  avg # of iterations =  3.0

     negative rho (up, down):  0.719E-02 0.000E+00

     total cpu time spent up to now is        1.2 secs

     total energy              =     -34.28270057 Ry
     Harris-Foulkes estimate   =     -34.52478210 Ry
     estimated scf accuracy    <       0.53147485 Ry

     iteration #  3     ecut=    25.00 Ry     beta=0.70
     Davidson diagonalization with overlap
     ethr =  5.18E-03,  avg # of iterations =  2.0

     negative rho (up, down):  0.501E-02 0.000E+00

     total cpu time spent up to now is        1.5 secs

     total energy              =     -34.38752385 Ry
     Harris-Foulkes estimate   =     -34.38967539 Ry
     estimated scf accuracy    <       0.00520951 Ry

     iteration #  4     ecut=    25.00 Ry     beta=0.70
     Davidson diagonalization with overlap
     ethr =  6.51E-05,  avg # of iterations =  2.0

     negative rho (up, down):  0.482E-02 0.000E+00

     total cpu time spent up to now is        1.8 secs

     total energy              =     -34.38944453 Ry
     Harris-Foulkes estimate   =     -34.38971984 Ry
     estimated scf accuracy    <       0.00076589 Ry

     iteration #  5     ecut=    25.00 Ry     beta=0.70
     Davidson diagonalization with overlap
     ethr =  9.57E-06,  avg # of iterations =  1.0

     negative rho (up, down):  0.489E-02 0.000E+00

     total cpu time spent up to now is        2.0 secs

     total energy              =     -34.38942524 Ry
     Harris-Foulkes estimate   =     -34.38947238 Ry
     estimated scf accuracy    <       0.00014705 Ry

     iteration #  6     ecut=    25.00 Ry     beta=0.70
     Davidson diagonalization with overlap
     ethr =  1.84E-06,  avg # of iterations =  1.0

     negative rho (up, down):  0.496E-02 0.000E+00

     total cpu time spent up to now is        2.3 secs

     total energy              =     -34.38942408 Ry
     Harris-Foulkes estimate   =     -34.38943177 Ry
     estimated scf accuracy    <       0.00002082 Ry

     iteration #  7     ecut=    25.00 Ry     beta=0.70
     Davidson diagonalization with overlap
     ethr =  2.60E-07,  avg # of iterations =  2.0

     negative rho (up, down):  0.496E-02 0.000E+00

     total cpu time spent up to now is        2.6 secs

     total energy              =     -34.38942817 Ry
     Harris-Foulkes estimate   =     -34.38942936 Ry
     estimated scf accuracy    <       0.00000347 Ry

     iteration #  8     ecut=    25.00 Ry     beta=0.70
     Davidson diagonalization with overlap
     ethr =  4.34E-08,  avg # of iterations =  1.0

     negative rho (up, down):  0.497E-02 0.000E+00

     total cpu time spent up to now is        2.8 secs

     End of self-consistent calculation

          k = 0.0000 0.0000 0.0000 (  6807 PWs)   bands (ev):

   -24.9877 -12.4149  -9.3709  -7.0529

!    total energy              =     -34.38942784 Ry
     Harris-Foulkes estimate   =     -34.38942842 Ry
     estimated scf accuracy    <       0.00000085 Ry

     convergence has been achieved in   8 iterations

     Forces acting on atoms (Ry/au):

     atom    1 type  1   force =    -0.04954486    0.01087150   -0.05672527
     atom    2 type  2   force =     0.04230998   -0.00109458    0.00494719
     atom    3 type  2   force =     0.00670618   -0.00966087    0.05130048

     Total force =     0.101865     Total SCF correction =     0.001279

     Molecular Dynamics Calculation
     mass O                =    16.00
     mass H                =     1.00
     Time step             =    20.00 a.u.,  0.9676 femto-seconds

     Entering Dynamics:    iteration =     1
                           time      =   0.0010 pico-seconds


ATOMIC_POSITIONS (angstrom)
O        5.245850121   4.875489094   5.226002014
H        4.254363656   4.858062095   5.335573151
H        5.302634399   5.062782391   4.242059622


     kinetic energy (Ekin) =     0.00000000 Ry
     temperature           =     0.00000000 K 
     Ekin + Etot (const)   =   -34.38942784 Ry

     Linear momentum :    0.0000000000    0.0000000000    0.0000000000

     Writing output data file ms2.save
     Check: negative starting charge=   -0.004447
     NEW-OLD atomic charge density approx. for the potential
     Check: negative starting charge=   -0.004448

     negative rho (up, down):  0.496E-02 0.000E+00

     total cpu time spent up to now is        3.4 secs

     per-process dynamical memory:    16.9 Mb

     Self-consistent Calculation

     iteration #  1     ecut=    25.00 Ry     beta=0.70
     Davidson diagonalization with overlap
     ethr =  1.00E-06,  avg # of iterations =  2.0

     negative rho (up, down):  0.497E-02 0.000E+00

     total cpu time spent up to now is        3.6 secs

     total energy              =     -34.38970816 Ry
     Harris-Foulkes estimate   =     -34.38971790 Ry
     estimated scf accuracy    <       0.00001381 Ry

     iteration #  2     ecut=    25.00 Ry     beta=0.70
     Davidson diagonalization with overlap
     ethr =  1.73E-07,  avg # of iterations =  3.0

     negative rho (up, down):  0.497E-02 0.000E+00

     total cpu time spent up to now is        3.9 secs

     total energy              =     -34.38971102 Ry
     Harris-Foulkes estimate   =     -34.38971817 Ry
     estimated scf accuracy    <       0.00001499 Ry

     iteration #  3     ecut=    25.00 Ry     beta=0.70
     Davidson diagonalization with overlap
     ethr =  1.73E-07,  avg # of iterations =  2.0

     negative rho (up, down):  0.498E-02 0.000E+00

     total cpu time spent up to now is        4.1 secs

     End of self-consistent calculation

          k = 0.0000 0.0000 0.0000 (  6807 PWs)   bands (ev):

   -25.0090 -12.4273  -9.3793  -7.0591

!    total energy              =     -34.38971408 Ry
     Harris-Foulkes estimate   =     -34.38971411 Ry
     estimated scf accuracy    <       0.00000007 Ry

     convergence has been achieved in   3 iterations

     Forces acting on atoms (Ry/au):

     atom    1 type  1   force =    -0.04824801    0.01034122   -0.05366361
     atom    2 type  2   force =     0.04087287   -0.00124794    0.00561067
     atom    3 type  2   force =     0.00737734   -0.00908763    0.04806505

     Total force =     0.097291     Total SCF correction =     0.000248

     Entering Dynamics:    iteration =     2
                           time      =   0.0019 pico-seconds


ATOMIC_POSITIONS (angstrom)
O        5.245209523   4.875152768   5.225102354
H        4.260559103   4.859139438   5.333601034
H        5.302877463   5.061837932   4.251622504


     kinetic energy (Ekin) =     0.00042409 Ry
     temperature           =    22.31968523 K 
     Ekin + Etot (const)   =   -34.38928998 Ry
     Message from routine dynamics:
     Total linear momentum <> 0

     Linear momentum :   -0.0088027677   -0.0121225766   -0.0157153660

     Writing output data file ms2.save
     Check: negative starting charge=   -0.004448
     NEW-OLD atomic charge density approx. for the potential
     Check: negative starting charge=   -0.004450

     negative rho (up, down):  0.495E-02 0.000E+00

     total cpu time spent up to now is        4.7 secs

     per-process dynamical memory:    16.9 Mb

     Self-consistent Calculation

     iteration #  1     ecut=    25.00 Ry     beta=0.70
     Davidson diagonalization with overlap
     ethr =  1.00E-06,  avg # of iterations =  3.0

     negative rho (up, down):  0.499E-02 0.000E+00

     total cpu time spent up to now is        5.0 secs

     total energy              =     -34.39039606 Ry
     Harris-Foulkes estimate   =     -34.39042172 Ry
     estimated scf accuracy    <       0.00004103 Ry

     iteration #  2     ecut=    25.00 Ry     beta=0.70
     Davidson diagonalization with overlap
     ethr =  5.13E-07,  avg # of iterations =  2.0

     negative rho (up, down):  0.500E-02 0.000E+00

     total cpu time spent up to now is        5.3 secs

     total energy              =     -34.39040372 Ry
     Harris-Foulkes estimate   =     -34.39042123 Ry
     estimated scf accuracy    <       0.00003530 Ry

     iteration #  3     ecut=    25.00 Ry     beta=0.70
     Davidson diagonalization with overlap
     ethr =  4.41E-07,  avg # of iterations =  2.0

     negative rho (up, down):  0.500E-02 0.000E+00

     total cpu time spent up to now is        5.5 secs

     End of self-consistent calculation

          k = 0.0000 0.0000 0.0000 (  6807 PWs)   bands (ev):

   -25.0656 -12.4608  -9.3971  -7.0709

!    total energy              =     -34.39041136 Ry
     Harris-Foulkes estimate   =     -34.39041144 Ry
     estimated scf accuracy    <       0.00000040 Ry

     convergence has been achieved in   3 iterations

     Forces acting on atoms (Ry/au):

     atom    1 type  1   force =    -0.04537486    0.00888499   -0.04547163
     atom    2 type  2   force =     0.03613137   -0.00165631    0.00743123
     atom    3 type  2   force =     0.00919460   -0.00727265    0.03805947

     Total force =     0.084587     Total SCF correction =     0.000286

     Entering Dynamics:    iteration =     3
                           time      =   0.0029 pico-seconds


ATOMIC_POSITIONS (angstrom)
O        5.244405525   4.874179838   5.223866552
H        4.263091852   4.861614055   5.327376677
H        5.301782469   5.061934862   4.259231213


     kinetic energy (Ekin) =     0.00079767 Ry
     temperature           =    41.98051260 K 
     Ekin + Etot (const)   =   -34.38961369 Ry
     Message from routine dynamics:
     Total linear momentum <> 0

     Linear momentum :   -0.0263921681   -0.0300165177   -0.0424735453

     Writing output data file ms2.save
     Check: negative starting charge=   -0.004450
     NEW-OLD atomic charge density approx. for the potential
     Check: negative starting charge=   -0.004450

     negative rho (up, down):  0.498E-02 0.000E+00

     total cpu time spent up to now is        6.1 secs

     per-process dynamical memory:    16.9 Mb

     Self-consistent Calculation

     iteration #  1     ecut=    25.00 Ry     beta=0.70
     Davidson diagonalization with overlap
     ethr =  1.00E-06,  avg # of iterations =  3.0

     negative rho (up, down):  0.503E-02 0.000E+00

     total cpu time spent up to now is        6.4 secs

     total energy              =     -34.39100039 Ry
     Harris-Foulkes estimate   =     -34.39103796 Ry
     estimated scf accuracy    <       0.00006249 Ry

     iteration #  2     ecut=    25.00 Ry     beta=0.70
     Davidson diagonalization with overlap
     ethr =  7.81E-07,  avg # of iterations =  2.0

     negative rho (up, down):  0.503E-02 0.000E+00

     total cpu time spent up to now is        6.6 secs

     total energy              =     -34.39101180 Ry
     Harris-Foulkes estimate   =     -34.39103710 Ry
     estimated scf accuracy    <       0.00005056 Ry

     iteration #  3     ecut=    25.00 Ry     beta=0.70
     Davidson diagonalization with overlap
     ethr =  6.32E-07,  avg # of iterations =  2.0

     negative rho (up, down):  0.504E-02 0.000E+00

     total cpu time spent up to now is        6.8 secs

     End of self-consistent calculation

          k = 0.0000 0.0000 0.0000 (  6807 PWs)   bands (ev):

   -25.1374 -12.4993  -9.4212  -7.0856

!    total energy              =     -34.39102291 Ry
     Harris-Foulkes estimate   =     -34.39102310 Ry
     estimated scf accuracy    <       0.00000073 Ry

     convergence has been achieved in   3 iterations

     Forces acting on atoms (Ry/au):

     atom    1 type  1   force =    -0.04179601    0.00695545   -0.03459761
     atom    2 type  2   force =     0.03003450   -0.00221183    0.00991016
     atom    3 type  2   force =     0.01172458   -0.00482541    0.02474328

     Total force =     0.069068     Total SCF correction =     0.000353

     Entering Dynamics:    iteration =     4
                           time      =   0.0039 pico-seconds


ATOMIC_POSITIONS (angstrom)
O        5.243413810   4.872539643   5.222760128
H        4.264472651   4.864548716   5.319930470
H        5.301220274   5.062652438   4.265504631


     kinetic energy (Ekin) =     0.00090420 Ry
     temperature           =    47.58746871 K 
     Ekin + Etot (const)   =   -34.39011871 Ry
     Message from routine dynamics:
     Total linear momentum <> 0

     Linear momentum :   -0.0347596653   -0.0521802235   -0.0435986500

     Writing output data file ms2.save
     Check: negative starting charge=   -0.004450
     NEW-OLD atomic charge density approx. for the potential
     Check: negative starting charge=   -0.004450

     negative rho (up, down):  0.505E-02 0.000E+00

     total cpu time spent up to now is        7.4 secs

     per-process dynamical memory:    16.9 Mb

     Self-consistent Calculation

     iteration #  1     ecut=    25.00 Ry     beta=0.70
     Davidson diagonalization with overlap
     ethr =  1.00E-06,  avg # of iterations =  3.0

     negative rho (up, down):  0.506E-02 0.000E+00

     total cpu time spent up to now is        7.7 secs

     total energy              =     -34.39123167 Ry
     Harris-Foulkes estimate   =     -34.39125057 Ry
     estimated scf accuracy    <       0.00003722 Ry

     iteration #  2     ecut=    25.00 Ry     beta=0.70
     Davidson diagonalization with overlap
     ethr =  4.65E-07,  avg # of iterations =  2.0

     negative rho (up, down):  0.506E-02 0.000E+00

     total cpu time spent up to now is        8.0 secs

     total energy              =     -34.39123762 Ry
     Harris-Foulkes estimate   =     -34.39125020 Ry
     estimated scf accuracy    <       0.00002449 Ry

     iteration #  3     ecut=    25.00 Ry     beta=0.70
     Davidson diagonalization with overlap
     ethr =  3.06E-07,  avg # of iterations =  2.0

     negative rho (up, down):  0.506E-02 0.000E+00

     total cpu time spent up to now is        8.2 secs

     End of self-consistent calculation

          k = 0.0000 0.0000 0.0000 (  6807 PWs)   bands (ev):

   -25.1966 -12.5230  -9.4462  -7.0977

!    total energy              =     -34.39124331 Ry
     Harris-Foulkes estimate   =     -34.39124360 Ry
     estimated scf accuracy    <       0.00000079 Ry

     convergence has been achieved in   3 iterations

     Forces acting on atoms (Ry/au):

     atom    1 type  1   force =    -0.03917712    0.00540185   -0.02564581
     atom    2 type  2   force =     0.02505728   -0.00277833    0.01229496
     atom    3 type  2   force =     0.01417870   -0.00275894    0.01352531

     Total force =     0.058310     Total SCF correction =     0.000384

     Entering Dynamics:    iteration =     5
                           time      =   0.0048 pico-seconds


ATOMIC_POSITIONS (angstrom)
O        5.242547823   4.870072441   5.222735901
H        4.263718955   4.867623820   5.312667401
H        5.302072966   5.064385163   4.268496433


     kinetic energy (Ekin) =     0.00070647 Ry
     temperature           =    37.18103635 K 
     Ekin + Etot (const)   =   -34.39053683 Ry
     Message from routine dynamics:
     Total linear momentum <> 0

     Linear momentum :   -0.0317753493   -0.0800744887   -0.0107610782

     Writing output data file ms2.save
     Check: negative starting charge=   -0.004450
     NEW-OLD atomic charge density approx. for the potential
     Check: negative starting charge=   -0.004451

     negative rho (up, down):  0.515E-02 0.000E+00

     total cpu time spent up to now is        8.8 secs

     per-process dynamical memory:    16.9 Mb

     Self-consistent Calculation

     iteration #  1     ecut=    25.00 Ry     beta=0.70
     Davidson diagonalization with overlap
     ethr =  1.00E-06,  avg # of iterations =  3.0

     negative rho (up, down):  0.509E-02 0.000E+00

     total cpu time spent up to now is        9.1 secs

     total energy              =     -34.39112776 Ry
     Harris-Foulkes estimate   =     -34.39112887 Ry
     estimated scf accuracy    <       0.00001080 Ry

     iteration #  2     ecut=    25.00 Ry     beta=0.70
     Davidson diagonalization with overlap
     ethr =  1.35E-07,  avg # of iterations =  2.0

     negative rho (up, down):  0.507E-02 0.000E+00

     total cpu time spent up to now is        9.3 secs

     End of self-consistent calculation

          k = 0.0000 0.0000 0.0000 (  6807 PWs)   bands (ev):

   -25.2159 -12.5138  -9.4644  -7.1000

!    total energy              =     -34.39112887 Ry
     Harris-Foulkes estimate   =     -34.39112872 Ry
     estimated scf accuracy    <       0.00000061 Ry

     convergence has been achieved in   2 iterations

     Forces acting on atoms (Ry/au):

     atom    1 type  1   force =    -0.03917843    0.00490385   -0.02340599
     atom    2 type  2   force =     0.02336610   -0.00327820    0.01393734
     atom    3 type  2   force =     0.01571942   -0.00217085    0.00990359

     Total force =     0.056637     Total SCF correction =     0.000690

     Entering Dynamics:    iteration =     6
                           time      =   0.0058 pico-seconds


ATOMIC_POSITIONS (angstrom)
O        5.242011357   4.866670008   5.224492945
H        4.260563623   4.870557939   5.306659844
H        5.304924144   5.067216879   4.267941516


     kinetic energy (Ekin) =     0.00059385 Ry
     temperature           =    31.25361454 K 
     Ekin + Etot (const)   =   -34.39053502 Ry
     Message from routine dynamics:
     Total linear momentum <> 0

     Linear momentum :   -0.0205285170   -0.1124247195    0.0497765221

     Writing output data file ms2.save
     Check: negative starting charge=   -0.004451
     NEW-OLD atomic charge density approx. for the potential
     Check: negative starting charge=   -0.004452

     negative rho (up, down):  0.524E-02 0.000E+00

     total cpu time spent up to now is        9.9 secs

     per-process dynamical memory:    16.9 Mb

     Self-consistent Calculation

     iteration #  1     ecut=    25.00 Ry     beta=0.70
     Davidson diagonalization with overlap
     ethr =  1.00E-06,  avg # of iterations =  4.0

     negative rho (up, down):  0.508E-02 0.000E+00

     total cpu time spent up to now is       10.2 secs

     total energy              =     -34.39075419 Ry
     Harris-Foulkes estimate   =     -34.39077653 Ry
     estimated scf accuracy    <       0.00004165 Ry

     iteration #  2     ecut=    25.00 Ry     beta=0.70
     Davidson diagonalization with overlap
     ethr =  5.21E-07,  avg # of iterations =  2.0

     negative rho (up, down):  0.507E-02 0.000E+00

     total cpu time spent up to now is       10.4 secs

     total energy              =     -34.39076057 Ry
     Harris-Foulkes estimate   =     -34.39077437 Ry
     estimated scf accuracy    <       0.00002680 Ry

     iteration #  3     ecut=    25.00 Ry     beta=0.70
     Davidson diagonalization with overlap
     ethr =  3.35E-07,  avg # of iterations =  2.0

     negative rho (up, down):  0.505E-02 0.000E+00

     total cpu time spent up to now is       10.6 secs

     End of self-consistent calculation

          k = 0.0000 0.0000 0.0000 (  6807 PWs)   bands (ev):

   -25.1857 -12.4677  -9.4732  -7.0915

!    total energy              =     -34.39076680 Ry
     Harris-Foulkes estimate   =     -34.39076730 Ry
     estimated scf accuracy    <       0.00000099 Ry

     convergence has been achieved in   3 iterations

     Forces acting on atoms (Ry/au):

     atom    1 type  1   force =    -0.04214600    0.00703699   -0.03017375
     atom    2 type  2   force =     0.02606678   -0.00365143    0.01448950
     atom    3 type  2   force =     0.01595582   -0.00354948    0.01568712

     Total force =     0.064438     Total SCF correction =     0.000589

     Entering Dynamics:    iteration =     7
                           time      =   0.0068 pico-seconds


ATOMIC_POSITIONS (angstrom)
O        5.241785585   4.862359539   5.228081919
H        4.255625046   4.873179740   5.302203895
H        5.309851382   5.070854130   4.265387749


     kinetic energy (Ekin) =     0.00085944 Ry
     temperature           =    45.23163473 K 
     Ekin + Etot (const)   =   -34.38990736 Ry
     Message from routine dynamics:
     Total linear momentum <> 0

     Linear momentum :   -0.0083699852   -0.1448434580    0.1164455775

     Writing output data file ms2.save
     Check: negative starting charge=   -0.004452
     NEW-OLD atomic charge density approx. for the potential
     Check: negative starting charge=   -0.004451

     negative rho (up, down):  0.528E-02 0.000E+00

     total cpu time spent up to now is       11.2 secs

     per-process dynamical memory:    16.9 Mb

     Self-consistent Calculation

     iteration #  1     ecut=    25.00 Ry     beta=0.70
     Davidson diagonalization with overlap
     ethr =  1.00E-06,  avg # of iterations =  4.0

     negative rho (up, down):  0.506E-02 0.000E+00

     total cpu time spent up to now is       11.5 secs

     total energy              =     -34.39003491 Ry
     Harris-Foulkes estimate   =     -34.39008132 Ry
     estimated scf accuracy    <       0.00008109 Ry

     iteration #  2     ecut=    25.00 Ry     beta=0.70
     Davidson diagonalization with overlap
     ethr =  1.01E-06,  avg # of iterations =  2.0

     negative rho (up, down):  0.503E-02 0.000E+00

     total cpu time spent up to now is       11.8 secs

     total energy              =     -34.39004798 Ry
     Harris-Foulkes estimate   =     -34.39007523 Ry
     estimated scf accuracy    <       0.00005266 Ry

     iteration #  3     ecut=    25.00 Ry     beta=0.70
     Davidson diagonalization with overlap
     ethr =  6.58E-07,  avg # of iterations =  2.0

     negative rho (up, down):  0.502E-02 0.000E+00

     total cpu time spent up to now is       12.0 secs

     total energy              =     -34.39006068 Ry
     Harris-Foulkes estimate   =     -34.39006118 Ry
     estimated scf accuracy    <       0.00000183 Ry

     iteration #  4     ecut=    25.00 Ry     beta=0.70
     Davidson diagonalization with overlap
     ethr =  2.29E-08,  avg # of iterations =  2.0

     negative rho (up, down):  0.502E-02 0.000E+00

     total cpu time spent up to now is       12.3 secs

     End of self-consistent calculation

          k = 0.0000 0.0000 0.0000 (  6807 PWs)   bands (ev):

   -25.1295 -12.4053  -9.4833  -7.0845

!    total energy              =     -34.39006103 Ry
     Harris-Foulkes estimate   =     -34.39006104 Ry
     estimated scf accuracy    <       0.00000006 Ry

     convergence has been achieved in   4 iterations

     Forces acting on atoms (Ry/au):

     atom    1 type  1   force =    -0.04726224    0.01046379   -0.04251384
     atom    2 type  2   force =     0.03231264   -0.00400332    0.01421571
     atom    3 type  2   force =     0.01498799   -0.00647365    0.02824382

     Total force =     0.080481     Total SCF correction =     0.000514

     Entering Dynamics:    iteration =     8
                           time      =   0.0077 pico-seconds


ATOMIC_POSITIONS (angstrom)
O        5.241589217   4.857341520   5.232822118
H        4.250161267   4.875460563   5.298754246
H        5.316396272   5.074771376   4.263435023


     kinetic energy (Ekin) =     0.00128188 Ry
     temperature           =    67.46440145 K 
     Ekin + Etot (const)   =   -34.38877914 Ry
     Message from routine dynamics:
     Total linear momentum <> 0

     Linear momentum :   -0.0047599795   -0.1711330387    0.1627035789

     Writing output data file ms2.save
     Check: negative starting charge=   -0.004451
     NEW-OLD atomic charge density approx. for the potential
     Check: negative starting charge=   -0.004449

     negative rho (up, down):  0.525E-02 0.000E+00

     total cpu time spent up to now is       12.9 secs

     per-process dynamical memory:    16.9 Mb

     Self-consistent Calculation

     iteration #  1     ecut=    25.00 Ry     beta=0.70
     Davidson diagonalization with overlap
     ethr =  1.00E-06,  avg # of iterations =  4.0

     negative rho (up, down):  0.502E-02 0.000E+00

     total cpu time spent up to now is       13.1 secs

     total energy              =     -34.38900402 Ry
     Harris-Foulkes estimate   =     -34.38907723 Ry
     estimated scf accuracy    <       0.00012105 Ry

     iteration #  2     ecut=    25.00 Ry     beta=0.70
     Davidson diagonalization with overlap
     ethr =  1.51E-06,  avg # of iterations =  2.0

     negative rho (up, down):  0.500E-02 0.000E+00

     total cpu time spent up to now is       13.4 secs

     total energy              =     -34.38902472 Ry
     Harris-Foulkes estimate   =     -34.38907220 Ry
     estimated scf accuracy    <       0.00009433 Ry

     iteration #  3     ecut=    25.00 Ry     beta=0.70
     Davidson diagonalization with overlap
     ethr =  1.18E-06,  avg # of iterations =  2.0

     negative rho (up, down):  0.498E-02 0.000E+00

     total cpu time spent up to now is       13.7 secs

     total energy              =     -34.38904621 Ry
     Harris-Foulkes estimate   =     -34.38904657 Ry
     estimated scf accuracy    <       0.00000183 Ry

     iteration #  4     ecut=    25.00 Ry     beta=0.70
     Davidson diagonalization with overlap
     ethr =  2.28E-08,  avg # of iterations =  2.0

     negative rho (up, down):  0.498E-02 0.000E+00

     total cpu time spent up to now is       13.9 secs

     End of self-consistent calculation

          k = 0.0000 0.0000 0.0000 (  6807 PWs)   bands (ev):

   -25.0606 -12.3371  -9.4849  -7.0716

!    total energy              =     -34.38904659 Ry
     Harris-Foulkes estimate   =     -34.38904664 Ry
     estimated scf accuracy    <       0.00000011 Ry

     convergence has been achieved in   4 iterations

     Forces acting on atoms (Ry/au):

     atom    1 type  1   force =    -0.05269202    0.01409533   -0.05499293
     atom    2 type  2   force =     0.03927902   -0.00442631    0.01372083
     atom    3 type  2   force =     0.01348376   -0.00969808    0.04121973

     Total force =     0.098615     Total SCF correction =     0.000771

     Entering Dynamics:    iteration =     9
                           time      =   0.0087 pico-seconds


ATOMIC_POSITIONS (angstrom)
O        5.240965838   4.851939965   5.237579656
H        4.245452524   4.877459683   5.295251516
H        5.323788476   5.078483903   4.264377617


     kinetic energy (Ekin) =     0.00148934 Ry
     temperature           =    78.38252907 K 
     Ekin + Etot (const)   =   -34.38755726 Ry
     Message from routine dynamics:
     Total linear momentum <> 0

     Linear momentum :   -0.0168397735   -0.1864307682    0.1699093862

     Writing output data file ms2.save
     Check: negative starting charge=   -0.004449
     NEW-OLD atomic charge density approx. for the potential
     Check: negative starting charge=   -0.004447

     negative rho (up, down):  0.516E-02 0.000E+00

     total cpu time spent up to now is       14.5 secs

     per-process dynamical memory:    16.9 Mb

     Self-consistent Calculation

     iteration #  1     ecut=    25.00 Ry     beta=0.70
     Davidson diagonalization with overlap
     ethr =  1.00E-06,  avg # of iterations =  4.0

     negative rho (up, down):  0.498E-02 0.000E+00

     total cpu time spent up to now is       14.8 secs

     total energy              =     -34.38811622 Ry
     Harris-Foulkes estimate   =     -34.38815549 Ry
     estimated scf accuracy    <       0.00007474 Ry

     iteration #  2     ecut=    25.00 Ry     beta=0.70
     Davidson diagonalization with overlap
     ethr =  9.34E-07,  avg # of iterations =  2.0

     negative rho (up, down):  0.496E-02 0.000E+00

     total cpu time spent up to now is       15.0 secs

     total energy              =     -34.38812694 Ry
     Harris-Foulkes estimate   =     -34.38815083 Ry
     estimated scf accuracy    <       0.00004598 Ry

     iteration #  3     ecut=    25.00 Ry     beta=0.70
     Davidson diagonalization with overlap
     ethr =  5.75E-07,  avg # of iterations =  2.0

     negative rho (up, down):  0.495E-02 0.000E+00

     total cpu time spent up to now is       15.3 secs

     total energy              =     -34.38813834 Ry
     Harris-Foulkes estimate   =     -34.38813899 Ry
     estimated scf accuracy    <       0.00000223 Ry

     iteration #  4     ecut=    25.00 Ry     beta=0.70
     Davidson diagonalization with overlap
     ethr =  2.79E-08,  avg # of iterations =  2.0

     negative rho (up, down):  0.495E-02 0.000E+00

     total cpu time spent up to now is       15.5 secs

     End of self-consistent calculation

          k = 0.0000 0.0000 0.0000 (  6807 PWs)   bands (ev):

   -25.0109 -12.2885  -9.4860  -7.0628

!    total energy              =     -34.38813873 Ry
     Harris-Foulkes estimate   =     -34.38813875 Ry
     estimated scf accuracy    <       0.00000005 Ry

     convergence has been achieved in   4 iterations

     Forces acting on atoms (Ry/au):

     atom    1 type  1   force =    -0.05667604    0.01706917   -0.06342499
     atom    2 type  2   force =     0.04454330   -0.00492280    0.01348031
     atom    3 type  2   force =     0.01216427   -0.01215216    0.04987798

     Total force =     0.111802     Total SCF correction =     0.000489

     Entering Dynamics:    iteration =    10
                           time      =   0.0097 pico-seconds


ATOMIC_POSITIONS (angstrom)
O        5.239469275   4.846499131   5.241268442
H        4.242349688   4.879238002   5.290682111
H        5.331290266   5.081723773   4.269433536


     kinetic energy (Ekin) =     0.00152106 Ry
     temperature           =    80.05188552 K 
     Ekin + Etot (const)   =   -34.38661768 Ry
     Message from routine dynamics:
     Total linear momentum <> 0

     Linear momentum :   -0.0451472912   -0.1894841472    0.1374490158

     Writing output data file ms2.save
     Check: negative starting charge=   -0.004447
     NEW-OLD atomic charge density approx. for the potential
     Check: negative starting charge=   -0.004445

     negative rho (up, down):  0.505E-02 0.000E+00

     total cpu time spent up to now is       16.1 secs

     per-process dynamical memory:    16.9 Mb

     Self-consistent Calculation

     iteration #  1     ecut=    25.00 Ry     beta=0.70
     Davidson diagonalization with overlap
     ethr =  1.00E-06,  avg # of iterations =  4.0

     negative rho (up, down):  0.495E-02 0.000E+00

     total cpu time spent up to now is       16.4 secs

     total energy              =     -34.38785099 Ry
     Harris-Foulkes estimate   =     -34.38785897 Ry
     estimated scf accuracy    <       0.00003241 Ry

     iteration #  2     ecut=    25.00 Ry     beta=0.70
     Davidson diagonalization with overlap
     ethr =  4.05E-07,  avg # of iterations =  2.0

     negative rho (up, down):  0.495E-02 0.000E+00

     total cpu time spent up to now is       16.6 secs

     total energy              =     -34.38785433 Ry
     Harris-Foulkes estimate   =     -34.38785600 Ry
     estimated scf accuracy    <       0.00000400 Ry

     iteration #  3     ecut=    25.00 Ry     beta=0.70
     Davidson diagonalization with overlap
     ethr =  5.00E-08,  avg # of iterations =  2.0

     negative rho (up, down):  0.494E-02 0.000E+00

     total cpu time spent up to now is       16.9 secs

     total energy              =     -34.38785515 Ry
     Harris-Foulkes estimate   =     -34.38785612 Ry
     estimated scf accuracy    <       0.00000218 Ry

     iteration #  4     ecut=    25.00 Ry     beta=0.70
     Davidson diagonalization with overlap
     ethr =  2.72E-08,  avg # of iterations =  2.0

     negative rho (up, down):  0.494E-02 0.000E+00

     total cpu time spent up to now is       17.1 secs

     End of self-consistent calculation

          k = 0.0000 0.0000 0.0000 (  6807 PWs)   bands (ev):

   -24.9986 -12.2742  -9.4886  -7.0614

!    total energy              =     -34.38785563 Ry
     Harris-Foulkes estimate   =     -34.38785564 Ry
     estimated scf accuracy    <       0.00000004 Ry

     convergence has been achieved in   4 iterations

     Forces acting on atoms (Ry/au):

     atom    1 type  1   force =    -0.05794705    0.01857463   -0.06531668
     atom    2 type  2   force =     0.04644368   -0.00544478    0.01374254
     atom    3 type  2   force =     0.01156956   -0.01312792    0.05162649

     Total force =     0.115396     Total SCF correction =     0.000164

     Entering Dynamics:    iteration =    11
                           time      =   0.0106 pico-seconds


ATOMIC_POSITIONS (angstrom)
O        5.236806782   4.841292458   5.243207511
H        4.241002246   4.880796354   5.284455854
H        5.338456196   5.084530275   4.278439364


     kinetic energy (Ekin) =     0.00171941 Ry
     temperature           =    90.49105097 K 
     Ekin + Etot (const)   =   -34.38613622 Ry
     Message from routine dynamics:
     Total linear momentum <> 0

     Linear momentum :   -0.0849573932   -0.1823394007    0.0780817442

     Writing output data file ms2.save
     Check: negative starting charge=   -0.004445
     NEW-OLD atomic charge density approx. for the potential
     Check: negative starting charge=   -0.004446

     negative rho (up, down):  0.495E-02 0.000E+00

     total cpu time spent up to now is       17.7 secs

     per-process dynamical memory:    16.9 Mb

     Self-consistent Calculation

     iteration #  1     ecut=    25.00 Ry     beta=0.70
     Davidson diagonalization with overlap
     ethr =  1.00E-06,  avg # of iterations =  4.0

     negative rho (up, down):  0.494E-02 0.000E+00

     total cpu time spent up to now is       18.0 secs

     total energy              =     -34.38834982 Ry
     Harris-Foulkes estimate   =     -34.38836315 Ry
     estimated scf accuracy    <       0.00004379 Ry

     iteration #  2     ecut=    25.00 Ry     beta=0.70
     Davidson diagonalization with overlap
     ethr =  5.47E-07,  avg # of iterations =  2.0

     negative rho (up, down):  0.495E-02 0.000E+00

     total cpu time spent up to now is       18.2 secs

     total energy              =     -34.38835360 Ry
     Harris-Foulkes estimate   =     -34.38836177 Ry
     estimated scf accuracy    <       0.00001540 Ry

     iteration #  3     ecut=    25.00 Ry     beta=0.70
     Davidson diagonalization with overlap
     ethr =  1.93E-07,  avg # of iterations =  2.0

     negative rho (up, down):  0.495E-02 0.000E+00

     total cpu time spent up to now is       18.5 secs

     total energy              =     -34.38835785 Ry
     Harris-Foulkes estimate   =     -34.38835901 Ry
     estimated scf accuracy    <       0.00000315 Ry

     iteration #  4     ecut=    25.00 Ry     beta=0.70
     Davidson diagonalization with overlap
     ethr =  3.94E-08,  avg # of iterations =  2.0

     negative rho (up, down):  0.496E-02 0.000E+00

     total cpu time spent up to now is       18.7 secs

     End of self-consistent calculation

          k = 0.0000 0.0000 0.0000 (  6807 PWs)   bands (ev):

   -25.0257 -12.2962  -9.4907  -7.0655

!    total energy              =     -34.38835841 Ry
     Harris-Foulkes estimate   =     -34.38835841 Ry
     estimated scf accuracy    <       0.00000002 Ry

     convergence has been achieved in   4 iterations

     Forces acting on atoms (Ry/au):

     atom    1 type  1   force =    -0.05616445    0.01822069   -0.06033824
     atom    2 type  2   force =     0.04430138   -0.00591277    0.01447710
     atom    3 type  2   force =     0.01198348   -0.01231486    0.04595524

     Total force =     0.108358     Total SCF correction =     0.000256

     Entering Dynamics:    iteration =    12
                           time      =   0.0116 pico-seconds


ATOMIC_POSITIONS (angstrom)
O        5.232927189   4.836457684   5.243307485
H        4.240779686   4.882042476   5.276578589
H        5.345293604   5.087266318   4.289909517


     kinetic energy (Ekin) =     0.00222998 Ry
     temperature           =   117.36183614 K 
     Ekin + Etot (const)   =   -34.38612843 Ry
     Message from routine dynamics:
     Total linear momentum <> 0

     Linear momentum :   -0.1280979261   -0.1694791540    0.0119935504

     Writing output data file ms2.save
     Check: negative starting charge=   -0.004446
     NEW-OLD atomic charge density approx. for the potential
     Check: negative starting charge=   -0.004447

     negative rho (up, down):  0.491E-02 0.000E+00

     total cpu time spent up to now is       19.3 secs

     per-process dynamical memory:    16.9 Mb

     Self-consistent Calculation

     iteration #  1     ecut=    25.00 Ry     beta=0.70
     Davidson diagonalization with overlap
     ethr =  1.00E-06,  avg # of iterations =  4.0

     negative rho (up, down):  0.495E-02 0.000E+00

     total cpu time spent up to now is       19.6 secs

     total energy              =     -34.38927490 Ry
     Harris-Foulkes estimate   =     -34.38932590 Ry
     estimated scf accuracy    <       0.00010211 Ry

     iteration #  2     ecut=    25.00 Ry     beta=0.70
     Davidson diagonalization with overlap
     ethr =  1.28E-06,  avg # of iterations =  2.0

     negative rho (up, down):  0.497E-02 0.000E+00

     total cpu time spent up to now is       19.9 secs

     total energy              =     -34.38928913 Ry
     Harris-Foulkes estimate   =     -34.38932611 Ry
     estimated scf accuracy    <       0.00007348 Ry

     iteration #  3     ecut=    25.00 Ry     beta=0.70
     Davidson diagonalization with overlap
     ethr =  9.19E-07,  avg # of iterations =  2.0

     negative rho (up, down):  0.498E-02 0.000E+00

     total cpu time spent up to now is       20.1 secs

     total energy              =     -34.38930648 Ry
     Harris-Foulkes estimate   =     -34.38930686 Ry
     estimated scf accuracy    <       0.00000228 Ry

     iteration #  4     ecut=    25.00 Ry     beta=0.70
     Davidson diagonalization with overlap
     ethr =  2.85E-08,  avg # of iterations =  2.0

     negative rho (up, down):  0.499E-02 0.000E+00

     total cpu time spent up to now is       20.3 secs

     End of self-consistent calculation

          k = 0.0000 0.0000 0.0000 (  6807 PWs)   bands (ev):

   -25.0855 -12.3497  -9.4941  -7.0774

!    total energy              =     -34.38930684 Ry
     Harris-Foulkes estimate   =     -34.38930689 Ry
     estimated scf accuracy    <       0.00000010 Ry

     convergence has been achieved in   4 iterations

     Forces acting on atoms (Ry/au):

     atom    1 type  1   force =    -0.05215743    0.01614815   -0.04995499
     atom    2 type  2   force =     0.03898499   -0.00624241    0.01540458
     atom    3 type  2   force =     0.01330168   -0.00993508    0.03463397

     Total force =     0.093530     Total SCF correction =     0.000722

     Entering Dynamics:    iteration =    13
                           time      =   0.0126 pico-seconds


ATOMIC_POSITIONS (angstrom)
O        5.228039870   4.831968136   5.242088392
H        4.240503773   4.882785370   5.267622054
H        5.352260676   5.090534465   4.301499813


     kinetic energy (Ekin) =     0.00277137 Ry
     temperature           =   145.85486427 K 
     Ekin + Etot (const)   =   -34.38653547 Ry
     Message from routine dynamics:
     Total linear momentum <> 0

     Linear momentum :   -0.1651638409   -0.1566540934   -0.0389701821

     Writing output data file ms2.save
     Check: negative starting charge=   -0.004447
     NEW-OLD atomic charge density approx. for the potential
     Check: negative starting charge=   -0.004448

     negative rho (up, down):  0.491E-02 0.000E+00

     total cpu time spent up to now is       20.9 secs

     per-process dynamical memory:    16.9 Mb

     Self-consistent Calculation

     iteration #  1     ecut=    25.00 Ry     beta=0.70
     Davidson diagonalization with overlap
     ethr =  1.00E-06,  avg # of iterations =  4.0

     negative rho (up, down):  0.497E-02 0.000E+00

     total cpu time spent up to now is       21.2 secs

     total energy              =     -34.39014432 Ry
     Harris-Foulkes estimate   =     -34.39020917 Ry
     estimated scf accuracy    <       0.00012538 Ry

     iteration #  2     ecut=    25.00 Ry     beta=0.70
     Davidson diagonalization with overlap
     ethr =  1.57E-06,  avg # of iterations =  2.0

     negative rho (up, down):  0.501E-02 0.000E+00

     total cpu time spent up to now is       21.5 secs

     total energy              =     -34.39016274 Ry
     Harris-Foulkes estimate   =     -34.39020809 Ry
     estimated scf accuracy    <       0.00008993 Ry

     iteration #  3     ecut=    25.00 Ry     beta=0.70
     Davidson diagonalization with overlap
     ethr =  1.12E-06,  avg # of iterations =  2.0

     negative rho (up, down):  0.501E-02 0.000E+00

     total cpu time spent up to now is       21.7 secs

     total energy              =     -34.39018381 Ry
     Harris-Foulkes estimate   =     -34.39018424 Ry
     estimated scf accuracy    <       0.00000257 Ry

     iteration #  4     ecut=    25.00 Ry     beta=0.70
     Davidson diagonalization with overlap
     ethr =  3.22E-08,  avg # of iterations =  2.0

     negative rho (up, down):  0.502E-02 0.000E+00

     total cpu time spent up to now is       21.9 secs

     End of self-consistent calculation

          k = 0.0000 0.0000 0.0000 (  6807 PWs)   bands (ev):

   -25.1536 -12.4158  -9.4930  -7.0899

!    total energy              =     -34.39018423 Ry
     Harris-Foulkes estimate   =     -34.39018429 Ry
     estimated scf accuracy    <       0.00000011 Ry

     convergence has been achieved in   4 iterations

     Forces acting on atoms (Ry/au):

     atom    1 type  1   force =    -0.04705966    0.01313600   -0.03739114
     atom    2 type  2   force =     0.03223726   -0.00638655    0.01610906
     atom    3 type  2   force =     0.01494749   -0.00677456    0.02137036

     Total force =     0.076491     Total SCF correction =     0.000775

     Entering Dynamics:    iteration =    14
                           time      =   0.0135 pico-seconds


ATOMIC_POSITIONS (angstrom)
O        5.222536522   4.827652200   5.240520575
H        4.238813727   4.882755917   5.258512092
H        5.360079797   5.095002292   4.310783084


     kinetic energy (Ekin) =     0.00295050 Ry
     temperature           =   155.28216225 K 
     Ekin + Etot (const)   =   -34.38723373 Ry
     Message from routine dynamics:
     Total linear momentum <> 0

     Linear momentum :   -0.1892285279   -0.1492508822   -0.0575409975

     Writing output data file ms2.save
     Check: negative starting charge=   -0.004448
     NEW-OLD atomic charge density approx. for the potential
     Check: negative starting charge=   -0.004448

     negative rho (up, down):  0.496E-02 0.000E+00

     total cpu time spent up to now is       22.6 secs

     per-process dynamical memory:    16.9 Mb

     Self-consistent Calculation

     iteration #  1     ecut=    25.00 Ry     beta=0.70
     Davidson diagonalization with overlap
     ethr =  1.00E-06,  avg # of iterations =  4.0

     negative rho (up, down):  0.500E-02 0.000E+00

     total cpu time spent up to now is       22.8 secs

     total energy              =     -34.39071540 Ry
     Harris-Foulkes estimate   =     -34.39075493 Ry
     estimated scf accuracy    <       0.00009040 Ry

     iteration #  2     ecut=    25.00 Ry     beta=0.70
     Davidson diagonalization with overlap
     ethr =  1.13E-06,  avg # of iterations =  2.0

     negative rho (up, down):  0.504E-02 0.000E+00

     total cpu time spent up to now is       23.1 secs

     total energy              =     -34.39072657 Ry
     Harris-Foulkes estimate   =     -34.39075233 Ry
     estimated scf accuracy    <       0.00004962 Ry

     iteration #  3     ecut=    25.00 Ry     beta=0.70
     Davidson diagonalization with overlap
     ethr =  6.20E-07,  avg # of iterations =  2.0

     negative rho (up, down):  0.505E-02 0.000E+00

     total cpu time spent up to now is       23.4 secs

     total energy              =     -34.39073919 Ry
     Harris-Foulkes estimate   =     -34.39074006 Ry
     estimated scf accuracy    <       0.00000323 Ry

     iteration #  4     ecut=    25.00 Ry     beta=0.70
     Davidson diagonalization with overlap
     ethr =  4.04E-08,  avg # of iterations =  2.0

     negative rho (up, down):  0.505E-02 0.000E+00

     total cpu time spent up to now is       23.6 secs

     End of self-consistent calculation

          k = 0.0000 0.0000 0.0000 (  6807 PWs)   bands (ev):

   -25.2013 -12.4724  -9.4841  -7.0980

!    total energy              =     -34.39073972 Ry
     Harris-Foulkes estimate   =     -34.39073973 Ry
     estimated scf accuracy    <       0.00000005 Ry

     convergence has been achieved in   4 iterations

     Forces acting on atoms (Ry/au):

     atom    1 type  1   force =    -0.04238206    0.01067644   -0.02786764
     atom    2 type  2   force =     0.02669211   -0.00636458    0.01616367
     atom    3 type  2   force =     0.01583437   -0.00432985    0.01182275

     Total force =     0.064112     Total SCF correction =     0.000469

     Entering Dynamics:    iteration =    15
                           time      =   0.0145 pico-seconds


ATOMIC_POSITIONS (angstrom)
O        5.216883012   4.823271510   5.239699471
H        4.234708393   4.881657030   5.250178069
H        5.369380086   5.101098302   4.316366692


     kinetic energy (Ekin) =     0.00275373 Ry
     temperature           =   144.92634341 K 
     Ekin + Etot (const)   =   -34.38798599 Ry
     Message from routine dynamics:
     Total linear momentum <> 0

     Linear momentum :   -0.1969356593   -0.1503534161   -0.0366981497

     Writing output data file ms2.save
     Check: negative starting charge=   -0.004448
     NEW-OLD atomic charge density approx. for the potential
     Check: negative starting charge=   -0.004448

     negative rho (up, down):  0.503E-02 0.000E+00

     total cpu time spent up to now is       24.2 secs

     per-process dynamical memory:    16.9 Mb

     Self-consistent Calculation

     iteration #  1     ecut=    25.00 Ry     beta=0.70
     Davidson diagonalization with overlap
     ethr =  1.00E-06,  avg # of iterations =  4.0

     negative rho (up, down):  0.502E-02 0.000E+00

     total cpu time spent up to now is       24.4 secs

     total energy              =     -34.39102504 Ry
     Harris-Foulkes estimate   =     -34.39103512 Ry
     estimated scf accuracy    <       0.00004998 Ry

     iteration #  2     ecut=    25.00 Ry     beta=0.70
     Davidson diagonalization with overlap
     ethr =  6.25E-07,  avg # of iterations =  2.0

     negative rho (up, down):  0.505E-02 0.000E+00

     total cpu time spent up to now is       24.7 secs

     total energy              =     -34.39103037 Ry
     Harris-Foulkes estimate   =     -34.39103156 Ry
     estimated scf accuracy    <       0.00000471 Ry

     iteration #  3     ecut=    25.00 Ry     beta=0.70
     Davidson diagonalization with overlap
     ethr =  5.89E-08,  avg # of iterations =  2.0

     negative rho (up, down):  0.506E-02 0.000E+00

     total cpu time spent up to now is       25.0 secs

     total energy              =     -34.39103107 Ry
     Harris-Foulkes estimate   =     -34.39103217 Ry
     estimated scf accuracy    <       0.00000240 Ry

     iteration #  4     ecut=    25.00 Ry     beta=0.70
     Davidson diagonalization with overlap
     ethr =  3.00E-08,  avg # of iterations =  2.0

     negative rho (up, down):  0.506E-02 0.000E+00

     total cpu time spent up to now is       25.2 secs

     End of self-consistent calculation

          k = 0.0000 0.0000 0.0000 (  6807 PWs)   bands (ev):

   -25.2050 -12.5001  -9.4650  -7.0969

!    total energy              =     -34.39103162 Ry
     Harris-Foulkes estimate   =     -34.39103167 Ry
     estimated scf accuracy    <       0.00000012 Ry

     convergence has been achieved in   4 iterations

     Forces acting on atoms (Ry/au):

     atom    1 type  1   force =    -0.03952898    0.01043911   -0.02612541
     atom    2 type  2   force =     0.02474833   -0.00625394    0.01535077
     atom    3 type  2   force =     0.01481270   -0.00412194    0.01075198

     Total force =     0.059944     Total SCF correction =     0.000241

     Entering Dynamics:    iteration =    16
                           time      =   0.0155 pico-seconds


ATOMIC_POSITIONS (angstrom)
O        5.211485961   4.818661685   5.240378184
H        4.228022146   4.879255281   5.243106618
H        5.380297239   5.108746707   4.318686724


     kinetic energy (Ekin) =     0.00256594 Ry
     temperature           =   135.04298265 K 
     Ekin + Etot (const)   =   -34.38846568 Ry
     Message from routine dynamics:
     Total linear momentum <> 0

     Linear momentum :   -0.1896844933   -0.1582451133    0.0141081842

     Writing output data file ms2.save
     Check: negative starting charge=   -0.004448
     NEW-OLD atomic charge density approx. for the potential
     Check: negative starting charge=   -0.004447

     negative rho (up, down):  0.510E-02 0.000E+00

     total cpu time spent up to now is       25.8 secs

     per-process dynamical memory:    16.9 Mb

     Self-consistent Calculation

     iteration #  1     ecut=    25.00 Ry     beta=0.70
     Davidson diagonalization with overlap
     ethr =  1.00E-06,  avg # of iterations =  4.0

     negative rho (up, down):  0.503E-02 0.000E+00

     total cpu time spent up to now is       26.1 secs

     total energy              =     -34.39104021 Ry
     Harris-Foulkes estimate   =     -34.39105854 Ry
     estimated scf accuracy    <       0.00006549 Ry

     iteration #  2     ecut=    25.00 Ry     beta=0.70
     Davidson diagonalization with overlap
     ethr =  8.19E-07,  avg # of iterations =  2.0

     negative rho (up, down):  0.504E-02 0.000E+00

     total cpu time spent up to now is       26.3 secs

     total energy              =     -34.39104782 Ry
     Harris-Foulkes estimate   =     -34.39105367 Ry
     estimated scf accuracy    <       0.00001202 Ry

     iteration #  3     ecut=    25.00 Ry     beta=0.70
     Davidson diagonalization with overlap
     ethr =  1.50E-07,  avg # of iterations =  2.0

     negative rho (up, down):  0.504E-02 0.000E+00

     total cpu time spent up to now is       26.6 secs

     total energy              =     -34.39105093 Ry
     Harris-Foulkes estimate   =     -34.39105286 Ry
     estimated scf accuracy    <       0.00000467 Ry

     iteration #  4     ecut=    25.00 Ry     beta=0.70
     Davidson diagonalization with overlap
     ethr =  5.84E-08,  avg # of iterations =  2.0

     negative rho (up, down):  0.504E-02 0.000E+00

     total cpu time spent up to now is       26.8 secs

     End of self-consistent calculation

          k = 0.0000 0.0000 0.0000 (  6807 PWs)   bands (ev):

   -25.1660 -12.4967  -9.4420  -7.0911

!    total energy              =     -34.39105189 Ry
     Harris-Foulkes estimate   =     -34.39105189 Ry
     estimated scf accuracy    <       0.00000008 Ry

     convergence has been achieved in   4 iterations

     Forces acting on atoms (Ry/au):

     atom    1 type  1   force =    -0.03891484    0.01285684   -0.03252800
     atom    2 type  2   force =     0.02750995   -0.00614563    0.01384932
     atom    3 type  2   force =     0.01143048   -0.00666820    0.01869144

     Total force =     0.065181     Total SCF correction =     0.000318

     Entering Dynamics:    iteration =    17
                           time      =   0.0164 pico-seconds


ATOMIC_POSITIONS (angstrom)
O        5.206588829   4.813866256   5.242605053
H        4.219607498   4.875480977   5.237033575
H        5.392255491   5.117350587   4.319834325


     kinetic energy (Ekin) =     0.00260576 Ry
     temperature           =   137.13879572 K 
     Ekin + Etot (const)   =   -34.38844613 Ry
     Message from routine dynamics:
     Total linear momentum <> 0

     Linear momentum :   -0.1727967092   -0.1660677647    0.0709209066

     Writing output data file ms2.save
     Check: negative starting charge=   -0.004447
     NEW-OLD atomic charge density approx. for the potential
     Check: negative starting charge=   -0.004446

     negative rho (up, down):  0.512E-02 0.000E+00

     total cpu time spent up to now is       27.4 secs

     per-process dynamical memory:    16.9 Mb

     Self-consistent Calculation

     iteration #  1     ecut=    25.00 Ry     beta=0.70
     Davidson diagonalization with overlap
     ethr =  1.00E-06,  avg # of iterations =  4.0

     negative rho (up, down):  0.501E-02 0.000E+00

     total cpu time spent up to now is       27.7 secs

     total energy              =     -34.39062048 Ry
     Harris-Foulkes estimate   =     -34.39067549 Ry
     estimated scf accuracy    <       0.00012049 Ry

     iteration #  2     ecut=    25.00 Ry     beta=0.70
     Davidson diagonalization with overlap
     ethr =  1.51E-06,  avg # of iterations =  2.0

     negative rho (up, down):  0.502E-02 0.000E+00

     total cpu time spent up to now is       27.9 secs

     total energy              =     -34.39063688 Ry
     Harris-Foulkes estimate   =     -34.39067100 Ry
     estimated scf accuracy    <       0.00006530 Ry

     iteration #  3     ecut=    25.00 Ry     beta=0.70
     Davidson diagonalization with overlap
     ethr =  8.16E-07,  avg # of iterations =  2.0

     negative rho (up, down):  0.501E-02 0.000E+00

     total cpu time spent up to now is       28.2 secs

     total energy              =     -34.39065367 Ry
     Harris-Foulkes estimate   =     -34.39065504 Ry
     estimated scf accuracy    <       0.00000464 Ry

     iteration #  4     ecut=    25.00 Ry     beta=0.70
     Davidson diagonalization with overlap
     ethr =  5.81E-08,  avg # of iterations =  2.0

     negative rho (up, down):  0.501E-02 0.000E+00

     total cpu time spent up to now is       28.4 secs

     End of self-consistent calculation

          k = 0.0000 0.0000 0.0000 (  6807 PWs)   bands (ev):

   -25.0951 -12.4666  -9.4127  -7.0763

!    total energy              =     -34.39065451 Ry
     Harris-Foulkes estimate   =     -34.39065450 Ry
     estimated scf accuracy    <       0.00000009 Ry

     convergence has been achieved in   4 iterations

     Forces acting on atoms (Ry/au):

     atom    1 type  1   force =    -0.04011148    0.01696766   -0.04318937
     atom    2 type  2   force =     0.03353970   -0.00606423    0.01213958
     atom    3 type  2   force =     0.00657674   -0.01083176    0.03097676

     Total force =     0.078685     Total SCF correction =     0.000654

     Entering Dynamics:    iteration =    18
                           time      =   0.0174 pico-seconds


ATOMIC_POSITIONS (angstrom)
O        5.202232766   4.809166247   5.245733092
H        4.210955731   4.870468603   5.231011170
H        5.404130423   5.126100974   4.322387482


     kinetic energy (Ekin) =     0.00264904 Ry
     temperature           =   139.41654724 K 
     Ekin + Etot (const)   =   -34.38800548 Ry
     Message from routine dynamics:
     Total linear momentum <> 0

     Linear momentum :   -0.1535407603   -0.1650626324    0.1075886677

     Writing output data file ms2.save
     Check: negative starting charge=   -0.004446
     NEW-OLD atomic charge density approx. for the potential
     Check: negative starting charge=   -0.004444

     negative rho (up, down):  0.510E-02 0.000E+00

     total cpu time spent up to now is       29.0 secs

     per-process dynamical memory:    16.9 Mb

     Self-consistent Calculation

     iteration #  1     ecut=    25.00 Ry     beta=0.70
     Davidson diagonalization with overlap
     ethr =  1.00E-06,  avg # of iterations =  4.0

     negative rho (up, down):  0.498E-02 0.000E+00

     total cpu time spent up to now is       29.3 secs

     total energy              =     -34.38990400 Ry
     Harris-Foulkes estimate   =     -34.38995388 Ry
     estimated scf accuracy    <       0.00011397 Ry

     iteration #  2     ecut=    25.00 Ry     beta=0.70
     Davidson diagonalization with overlap
     ethr =  1.42E-06,  avg # of iterations =  2.0

     negative rho (up, down):  0.499E-02 0.000E+00

     total cpu time spent up to now is       29.6 secs

     total energy              =     -34.38991897 Ry
     Harris-Foulkes estimate   =     -34.38995123 Ry
     estimated scf accuracy    <       0.00006209 Ry

     iteration #  3     ecut=    25.00 Ry     beta=0.70
     Davidson diagonalization with overlap
     ethr =  7.76E-07,  avg # of iterations =  2.0

     negative rho (up, down):  0.498E-02 0.000E+00

     total cpu time spent up to now is       29.8 secs

     total energy              =     -34.38993500 Ry
     Harris-Foulkes estimate   =     -34.38993629 Ry
     estimated scf accuracy    <       0.00000457 Ry

     iteration #  4     ecut=    25.00 Ry     beta=0.70
     Davidson diagonalization with overlap
     ethr =  5.71E-08,  avg # of iterations =  2.0

     negative rho (up, down):  0.498E-02 0.000E+00

     total cpu time spent up to now is       30.0 secs

     End of self-consistent calculation

          k = 0.0000 0.0000 0.0000 (  6807 PWs)   bands (ev):

   -25.0246 -12.4319  -9.3869  -7.0622

!    total energy              =     -34.38993581 Ry
     Harris-Foulkes estimate   =     -34.38993581 Ry
     estimated scf accuracy    <       0.00000008 Ry

     convergence has been achieved in   4 iterations

     Forces acting on atoms (Ry/au):

     atom    1 type  1   force =    -0.04235271    0.02099898   -0.05282589
     atom    2 type  2   force =     0.04054349   -0.00600551    0.01077691
     atom    3 type  2   force =     0.00179125   -0.01490636    0.04197307

     Total force =     0.093853     Total SCF correction =     0.000624

     Entering Dynamics:    iteration =    19
                           time      =   0.0184 pico-seconds


ATOMIC_POSITIONS (angstrom)
O        5.198307860   4.804968419   5.248815600
H        4.203664519   4.864480516   5.223858192
H        5.414675241   5.134323602   4.328304655


     kinetic energy (Ekin) =     0.00248715 Ry
     temperature           =   130.89626695 K 
     Ekin + Etot (const)   =   -34.38744867 Ry
     Message from routine dynamics:
     Total linear momentum <> 0

     Linear momentum :   -0.1375363149   -0.1499764392    0.1110647720

     Writing output data file ms2.save
     Check: negative starting charge=   -0.004444
     NEW-OLD atomic charge density approx. for the potential
     Check: negative starting charge=   -0.004442

     negative rho (up, down):  0.503E-02 0.000E+00

     total cpu time spent up to now is       30.6 secs

     per-process dynamical memory:    16.9 Mb

     Self-consistent Calculation

     iteration #  1     ecut=    25.00 Ry     beta=0.70
     Davidson diagonalization with overlap
     ethr =  1.00E-06,  avg # of iterations =  4.0

     negative rho (up, down):  0.496E-02 0.000E+00

     total cpu time spent up to now is       30.9 secs

     total energy              =     -34.38934782 Ry
     Harris-Foulkes estimate   =     -34.38936673 Ry
     estimated scf accuracy    <       0.00006868 Ry

     iteration #  2     ecut=    25.00 Ry     beta=0.70
     Davidson diagonalization with overlap
     ethr =  8.58E-07,  avg # of iterations =  2.0

     negative rho (up, down):  0.496E-02 0.000E+00

     total cpu time spent up to now is       31.2 secs

     total energy              =     -34.38935475 Ry
     Harris-Foulkes estimate   =     -34.38936759 Ry
     estimated scf accuracy    <       0.00002480 Ry

     iteration #  3     ecut=    25.00 Ry     beta=0.70
     Davidson diagonalization with overlap
     ethr =  3.10E-07,  avg # of iterations =  2.0

     negative rho (up, down):  0.496E-02 0.000E+00

     total cpu time spent up to now is       31.4 secs

     total energy              =     -34.38936161 Ry
     Harris-Foulkes estimate   =     -34.38936328 Ry
     estimated scf accuracy    <       0.00000484 Ry

     iteration #  4     ecut=    25.00 Ry     beta=0.70
     Davidson diagonalization with overlap
     ethr =  6.05E-08,  avg # of iterations =  2.0

     negative rho (up, down):  0.496E-02 0.000E+00

     total cpu time spent up to now is       31.6 secs

     End of self-consistent calculation

          k = 0.0000 0.0000 0.0000 (  6807 PWs)   bands (ev):

   -24.9799 -12.4115  -9.3692  -7.0535

!    total energy              =     -34.38936251 Ry
     Harris-Foulkes estimate   =     -34.38936249 Ry
     estimated scf accuracy    <       0.00000005 Ry

     convergence has been achieved in   4 iterations

     Forces acting on atoms (Ry/au):

     atom    1 type  1   force =    -0.04454161    0.02342049   -0.05773843
     atom    2 type  2   force =     0.04594654   -0.00593527    0.01012704
     atom    3 type  2   force =    -0.00143655   -0.01739250    0.04756029

     Total force =     0.103352     Total SCF correction =     0.000424

     Entering Dynamics:    iteration =    20
                           time      =   0.0194 pico-seconds


ATOMIC_POSITIONS (angstrom)
O        5.194622864   4.801648699   5.251051665
H        4.198869674   4.857792073   5.214639076
H        5.422951312   5.141718665   4.338286214


     kinetic energy (Ekin) =     0.00229876 Ry
     temperature           =   120.98190502 K 
     Ekin + Etot (const)   =   -34.38706374 Ry
     Message from routine dynamics:
     Total linear momentum <> 0

     Linear momentum :   -0.1281442593   -0.1210536493    0.0843986026

     Writing output data file ms2.save
     Check: negative starting charge=   -0.004442
     NEW-OLD atomic charge density approx. for the potential
     Check: negative starting charge=   -0.004443

     negative rho (up, down):  0.496E-02 0.000E+00

     total cpu time spent up to now is       32.3 secs

     per-process dynamical memory:    16.9 Mb

     Self-consistent Calculation

     iteration #  1     ecut=    25.00 Ry     beta=0.70
     Davidson diagonalization with overlap
     ethr =  1.00E-06,  avg # of iterations =  4.0

     negative rho (up, down):  0.495E-02 0.000E+00

     total cpu time spent up to now is       32.5 secs

     total energy              =     -34.38937906 Ry
     Harris-Foulkes estimate   =     -34.38937816 Ry
     estimated scf accuracy    <       0.00004034 Ry

     iteration #  2     ecut=    25.00 Ry     beta=0.70
     Davidson diagonalization with overlap
     ethr =  5.04E-07,  avg # of iterations =  2.0

     negative rho (up, down):  0.496E-02 0.000E+00

     total cpu time spent up to now is       32.8 secs

     total energy              =     -34.38938299 Ry
     Harris-Foulkes estimate   =     -34.38938196 Ry
     estimated scf accuracy    <       0.00000251 Ry

     iteration #  3     ecut=    25.00 Ry     beta=0.70
     Davidson diagonalization with overlap
     ethr =  3.14E-08,  avg # of iterations =  1.0

     negative rho (up, down):  0.496E-02 0.000E+00

     total cpu time spent up to now is       33.0 secs

     End of self-consistent calculation

          k = 0.0000 0.0000 0.0000 (  6807 PWs)   bands (ev):

   -24.9751 -12.4162  -9.3613  -7.0517

!    total energy              =     -34.38938318 Ry
     Harris-Foulkes estimate   =     -34.38938312 Ry
     estimated scf accuracy    <       0.00000009 Ry

     convergence has been achieved in   3 iterations

     Forces acting on atoms (Ry/au):

     atom    1 type  1   force =    -0.04561215    0.02331832   -0.05635053
     atom    2 type  2   force =     0.04790527   -0.00585352    0.01028488
     atom    3 type  2   force =    -0.00218115   -0.01743930    0.04607337

     Total force =     0.103277     Total SCF correction =     0.000180

     Entering Dynamics:    iteration =    21
                           time      =   0.0203 pico-seconds


ATOMIC_POSITIONS (angstrom)
O        5.190997788   4.799418323   5.252095164
H        4.196868418   4.850580534   5.202970946
H        5.428643739   5.148460890   4.351645450


     kinetic energy (Ekin) =     0.00238950 Ry
     temperature           =   125.75700850 K 
     Ekin + Etot (const)   =   -34.38699368 Ry
     Message from routine dynamics:
     Total linear momentum <> 0

     Linear momentum :   -0.1254449178   -0.0835113046    0.0424703731

     Writing output data file ms2.save
     Check: negative starting charge=   -0.004443
     NEW-OLD atomic charge density approx. for the potential
     Check: negative starting charge=   -0.004448

     negative rho (up, down):  0.492E-02 0.000E+00

     total cpu time spent up to now is       33.7 secs

     per-process dynamical memory:    16.9 Mb

     Self-consistent Calculation

     iteration #  1     ecut=    25.00 Ry     beta=0.70
     Davidson diagonalization with overlap
     ethr =  1.00E-06,  avg # of iterations =  4.0

     negative rho (up, down):  0.496E-02 0.000E+00

     total cpu time spent up to now is       34.0 secs

     total energy              =     -34.38999071 Ry
     Harris-Foulkes estimate   =     -34.39000453 Ry
     estimated scf accuracy    <       0.00006541 Ry

     iteration #  2     ecut=    25.00 Ry     beta=0.70
     Davidson diagonalization with overlap
     ethr =  8.18E-07,  avg # of iterations =  2.0

     negative rho (up, down):  0.497E-02 0.000E+00

     total cpu time spent up to now is       34.3 secs

     total energy              =     -34.38999614 Ry
     Harris-Foulkes estimate   =     -34.39001082 Ry
     estimated scf accuracy    <       0.00002935 Ry

     iteration #  3     ecut=    25.00 Ry     beta=0.70
     Davidson diagonalization with overlap
     ethr =  3.67E-07,  avg # of iterations =  2.0

     negative rho (up, down):  0.497E-02 0.000E+00

     total cpu time spent up to now is       34.6 secs

     total energy              =     -34.39000418 Ry
     Harris-Foulkes estimate   =     -34.39000528 Ry
     estimated scf accuracy    <       0.00000410 Ry

     iteration #  4     ecut=    25.00 Ry     beta=0.70
     Davidson diagonalization with overlap
     ethr =  5.13E-08,  avg # of iterations =  2.0

     negative rho (up, down):  0.498E-02 0.000E+00

     total cpu time spent up to now is       34.8 secs

     End of self-consistent calculation

          k = 0.0000 0.0000 0.0000 (  6807 PWs)   bands (ev):

   -25.0128 -12.4480  -9.3655  -7.0592

!    total energy              =     -34.39000484 Ry
     Harris-Foulkes estimate   =     -34.39000484 Ry
     estimated scf accuracy    <       0.00000003 Ry

     convergence has been achieved in   4 iterations

     Forces acting on atoms (Ry/au):

     atom    1 type  1   force =    -0.04582863    0.02063013   -0.04883075
     atom    2 type  2   force =     0.04605029   -0.00575750    0.01113206
     atom    3 type  2   force =    -0.00018628   -0.01484941    0.03778655

     Total force =     0.094002     Total SCF correction =     0.000348

     Entering Dynamics:    iteration =    22
                           time      =   0.0213 pico-seconds


ATOMIC_POSITIONS (angstrom)
O        5.187333260   4.798252996   5.252171401
H        4.197100724   4.842861014   5.189115002
H        5.432197635   5.155179107   4.366498480


     kinetic energy (Ekin) =     0.00274599 Ry
     temperature           =   144.51902729 K 
     Ekin + Etot (const)   =   -34.38725885 Ry
     Message from routine dynamics:
     Total linear momentum <> 0

     Linear momentum :   -0.1266833854   -0.0453794088    0.0051205300

     Writing output data file ms2.save
     Check: negative starting charge=   -0.004448
     NEW-OLD atomic charge density approx. for the potential
     Check: negative starting charge=   -0.004452

     negative rho (up, down):  0.493E-02 0.000E+00

     total cpu time spent up to now is       35.6 secs

     per-process dynamical memory:    16.9 Mb

     Self-consistent Calculation

     iteration #  1     ecut=    25.00 Ry     beta=0.70
     Davidson diagonalization with overlap
     ethr =  1.00E-06,  avg # of iterations =  4.0

     negative rho (up, down):  0.498E-02 0.000E+00

     total cpu time spent up to now is       35.9 secs

     total energy              =     -34.39076630 Ry
     Harris-Foulkes estimate   =     -34.39080652 Ry
     estimated scf accuracy    <       0.00010898 Ry

     iteration #  2     ecut=    25.00 Ry     beta=0.70
     Davidson diagonalization with overlap
     ethr =  1.36E-06,  avg # of iterations =  2.0

     negative rho (up, down):  0.500E-02 0.000E+00

     total cpu time spent up to now is       36.1 secs

     total energy              =     -34.39077943 Ry
     Harris-Foulkes estimate   =     -34.39081369 Ry
     estimated scf accuracy    <       0.00006837 Ry

     iteration #  3     ecut=    25.00 Ry     beta=0.70
     Davidson diagonalization with overlap
     ethr =  8.55E-07,  avg # of iterations =  2.0

     negative rho (up, down):  0.500E-02 0.000E+00

     total cpu time spent up to now is       36.4 secs

     total energy              =     -34.39079654 Ry
     Harris-Foulkes estimate   =     -34.39079706 Ry
     estimated scf accuracy    <       0.00000362 Ry

     iteration #  4     ecut=    25.00 Ry     beta=0.70
     Davidson diagonalization with overlap
     ethr =  4.52E-08,  avg # of iterations =  2.0

     negative rho (up, down):  0.501E-02 0.000E+00

     total cpu time spent up to now is       36.6 secs

     End of self-consistent calculation

          k = 0.0000 0.0000 0.0000 (  6807 PWs)   bands (ev):

   -25.0786 -12.4955  -9.3784  -7.0722

!    total energy              =     -34.39079707 Ry
     Harris-Foulkes estimate   =     -34.39079711 Ry
     estimated scf accuracy    <       0.00000008 Ry

     convergence has been achieved in   4 iterations

     Forces acting on atoms (Ry/au):

     atom    1 type  1   force =    -0.04475402    0.01608987   -0.03767163
     atom    2 type  2   force =     0.04093956   -0.00572636    0.01235803
     atom    3 type  2   force =     0.00386527   -0.01032952    0.02540388

     Total force =     0.079432     Total SCF correction =     0.000648

     Entering Dynamics:    iteration =    23
                           time      =   0.0223 pico-seconds


ATOMIC_POSITIONS (angstrom)
O        5.183617246   4.797888315   5.252031759
H        4.198288237   4.834451976   5.173894568
H        5.434655866   5.162776719   4.380392388


     kinetic energy (Ekin) =     0.00301298 Ry
     temperature           =   158.57022363 K 
     Ekin + Etot (const)   =   -34.38778409 Ry
     Message from routine dynamics:
     Total linear momentum <> 0

     Linear momentum :   -0.1289106160   -0.0153515883   -0.0082247126

     Writing output data file ms2.save
     Check: negative starting charge=   -0.004452
     NEW-OLD atomic charge density approx. for the potential
     Check: negative starting charge=   -0.004455

     negative rho (up, down):  0.498E-02 0.000E+00

     total cpu time spent up to now is       37.4 secs

     per-process dynamical memory:    16.9 Mb

     Self-consistent Calculation

     iteration #  1     ecut=    25.00 Ry     beta=0.70
     Davidson diagonalization with overlap
     ethr =  1.00E-06,  avg # of iterations =  4.0

     negative rho (up, down):  0.502E-02 0.000E+00

     total cpu time spent up to now is       37.7 secs

     total energy              =     -34.39129016 Ry
     Harris-Foulkes estimate   =     -34.39132668 Ry
     estimated scf accuracy    <       0.00010768 Ry

     iteration #  2     ecut=    25.00 Ry     beta=0.70
     Davidson diagonalization with overlap
     ethr =  1.35E-06,  avg # of iterations =  2.0

     negative rho (up, down):  0.503E-02 0.000E+00

     total cpu time spent up to now is       38.0 secs

     total energy              =     -34.39130285 Ry
     Harris-Foulkes estimate   =     -34.39133411 Ry
     estimated scf accuracy    <       0.00006205 Ry

     iteration #  3     ecut=    25.00 Ry     beta=0.70
     Davidson diagonalization with overlap
     ethr =  7.76E-07,  avg # of iterations =  2.0

     negative rho (up, down):  0.503E-02 0.000E+00

     total cpu time spent up to now is       38.2 secs

     total energy              =     -34.39131874 Ry
     Harris-Foulkes estimate   =     -34.39131943 Ry
     estimated scf accuracy    <       0.00000403 Ry

     iteration #  4     ecut=    25.00 Ry     beta=0.70
     Davidson diagonalization with overlap
     ethr =  5.03E-08,  avg # of iterations =  2.0

     negative rho (up, down):  0.504E-02 0.000E+00

     total cpu time spent up to now is       38.5 secs

     End of self-consistent calculation

          k = 0.0000 0.0000 0.0000 (  6807 PWs)   bands (ev):

   -25.1465 -12.5390  -9.3950  -7.0853

!    total energy              =     -34.39131935 Ry
     Harris-Foulkes estimate   =     -34.39131937 Ry
     estimated scf accuracy    <       0.00000007 Ry

     convergence has been achieved in   4 iterations

     Forces acting on atoms (Ry/au):

     atom    1 type  1   force =    -0.04274418    0.01140410   -0.02708473
     atom    2 type  2   force =     0.03440550   -0.00577563    0.01362652
     atom    3 type  2   force =     0.00838027   -0.00560256    0.01354166

     Total force =     0.066170     Total SCF correction =     0.000581

     Entering Dynamics:    iteration =    24
                           time      =   0.0232 pico-seconds


ATOMIC_POSITIONS (angstrom)
O        5.179937442   4.797905524   5.252708873
H        4.198880831   4.825024797   5.158431400
H        5.437278838   5.172073452   4.391241948


     kinetic energy (Ekin) =     0.00293877 Ry
     temperature           =   154.66489117 K 
     Ekin + Etot (const)   =   -34.38838058 Ry
     Message from routine dynamics:
     Total linear momentum <> 0

     Linear momentum :   -0.1285659922    0.0003346875    0.0143674184

     Writing output data file ms2.save
     Check: negative starting charge=   -0.004455
[...]
     Harris-Foulkes estimate   =     -34.39056375 Ry
     estimated scf accuracy    <       0.00000996 Ry

     iteration #  4     ecut=    25.00 Ry     beta=0.70
     Davidson diagonalization with overlap
     ethr =  1.24E-07,  avg # of iterations =  2.0

     negative rho (up, down):  0.500E-02 0.000E+00

     total cpu time spent up to now is      343.6 secs

     End of self-consistent calculation

          k = 0.0000 0.0000 0.0000 (  6807 PWs)   bands (ev):

   -25.0460 -12.4808  -9.3659  -7.0666

!    total energy              =     -34.39056206 Ry
     Harris-Foulkes estimate   =     -34.39056200 Ry
     estimated scf accuracy    <       0.00000016 Ry

     convergence has been achieved in   4 iterations

     Forces acting on atoms (Ry/au):

     atom    1 type  1   force =    -0.04220616    0.03234235   -0.03674255
     atom    2 type  2   force =     0.04094674   -0.01696797    0.00589359
     atom    3 type  2   force =     0.00107867   -0.01532536    0.03085933

     Total force =     0.085820     Total SCF correction =     0.000658

     Entering Dynamics:    iteration =   196
                           time      =   0.1896 pico-seconds


ATOMIC_POSITIONS (angstrom)
O        5.174370107   4.712893673   5.211320646
H        4.222977962   5.017833698   5.289858265
H        5.385065644   5.059116478   4.309947303


     kinetic energy (Ekin) =     0.00475812 Ry
     temperature           =   250.41540080 K 
     Ekin + Etot (const)   =   -34.38580394 Ry
     Message from routine dynamics:
     Total linear momentum <> 0

     Linear momentum :    0.3360241176    0.0087286585   -0.0778683304

     Writing output data file ms2.save
     Check: negative starting charge=   -0.004450
     NEW-OLD atomic charge density approx. for the potential
     Check: negative starting charge=   -0.004447

     negative rho (up, down):  0.544E-02 0.000E+00

     total cpu time spent up to now is      344.3 secs

     per-process dynamical memory:    18.3 Mb

     Self-consistent Calculation

     iteration #  1     ecut=    25.00 Ry     beta=0.70
     Davidson diagonalization with overlap
     ethr =  1.00E-06,  avg # of iterations =  4.0

     negative rho (up, down):  0.503E-02 0.000E+00

     total cpu time spent up to now is      344.6 secs

     total energy              =     -34.38923109 Ry
     Harris-Foulkes estimate   =     -34.38930589 Ry
     estimated scf accuracy    <       0.00018423 Ry

     iteration #  2     ecut=    25.00 Ry     beta=0.70
     Davidson diagonalization with overlap
     ethr =  2.30E-06,  avg # of iterations =  2.0

     negative rho (up, down):  0.501E-02 0.000E+00

     total cpu time spent up to now is      344.9 secs

     total energy              =     -34.38925621 Ry
     Harris-Foulkes estimate   =     -34.38928894 Ry
     estimated scf accuracy    <       0.00006188 Ry

     iteration #  3     ecut=    25.00 Ry     beta=0.70
     Davidson diagonalization with overlap
     ethr =  7.74E-07,  avg # of iterations =  2.0

     negative rho (up, down):  0.499E-02 0.000E+00

     total cpu time spent up to now is      345.2 secs

     total energy              =     -34.38927306 Ry
     Harris-Foulkes estimate   =     -34.38927745 Ry
     estimated scf accuracy    <       0.00001148 Ry

     iteration #  4     ecut=    25.00 Ry     beta=0.70
     Davidson diagonalization with overlap
     ethr =  1.44E-07,  avg # of iterations =  2.0

     negative rho (up, down):  0.499E-02 0.000E+00

     total cpu time spent up to now is      345.4 secs

     End of self-consistent calculation

          k = 0.0000 0.0000 0.0000 (  6807 PWs)   bands (ev):

   -25.0118 -12.4019  -9.3992  -7.0612

!    total energy              =     -34.38927537 Ry
     Harris-Foulkes estimate   =     -34.38927530 Ry
     estimated scf accuracy    <       0.00000017 Ry

     convergence has been achieved in   4 iterations

     Forces acting on atoms (Ry/au):

     atom    1 type  1   force =    -0.06073271    0.03660190   -0.03311628
     atom    2 type  2   force =     0.05602181   -0.02242809    0.00588554
     atom    3 type  2   force =     0.00452063   -0.01413121    0.02722715

     Total force =     0.103742     Total SCF correction =     0.000636

     Entering Dynamics:    iteration =   197
                           time      =   0.1906 pico-seconds


ATOMIC_POSITIONS (angstrom)
O        5.186366743   4.714288112   5.210691170
H        4.225931432   5.022461035   5.295381394
H        5.368646868   5.049850497   4.300907442


     kinetic energy (Ekin) =     0.00541373 Ry
     temperature           =   284.91959373 K 
     Ekin + Etot (const)   =   -34.38386164 Ry
     Message from routine dynamics:
     Total linear momentum <> 0

     Linear momentum :    0.4122536761    0.0408195102   -0.0313862580

     Writing output data file ms2.save
     Check: negative starting charge=   -0.004447
     NEW-OLD atomic charge density approx. for the potential
     Check: negative starting charge=   -0.004442

     negative rho (up, down):  0.549E-02 0.000E+00

     total cpu time spent up to now is      346.1 secs

     per-process dynamical memory:    18.3 Mb

     Self-consistent Calculation

     iteration #  1     ecut=    25.00 Ry     beta=0.70
     Davidson diagonalization with overlap
     ethr =  1.00E-06,  avg # of iterations =  4.0

     negative rho (up, down):  0.504E-02 0.000E+00

     total cpu time spent up to now is      346.4 secs

     total energy              =     -34.38762069 Ry
     Harris-Foulkes estimate   =     -34.38768332 Ry
     estimated scf accuracy    <       0.00017084 Ry

     iteration #  2     ecut=    25.00 Ry     beta=0.70
     Davidson diagonalization with overlap
     ethr =  2.14E-06,  avg # of iterations =  2.0

     negative rho (up, down):  0.500E-02 0.000E+00

     total cpu time spent up to now is      346.7 secs

     total energy              =     -34.38764207 Ry
     Harris-Foulkes estimate   =     -34.38767233 Ry
     estimated scf accuracy    <       0.00005772 Ry

     iteration #  3     ecut=    25.00 Ry     beta=0.70
     Davidson diagonalization with overlap
     ethr =  7.21E-07,  avg # of iterations =  2.0

     negative rho (up, down):  0.499E-02 0.000E+00

     total cpu time spent up to now is      347.0 secs

     total energy              =     -34.38765774 Ry
     Harris-Foulkes estimate   =     -34.38766201 Ry
     estimated scf accuracy    <       0.00001120 Ry

     iteration #  4     ecut=    25.00 Ry     beta=0.70
     Davidson diagonalization with overlap
     ethr =  1.40E-07,  avg # of iterations =  2.0

     negative rho (up, down):  0.498E-02 0.000E+00

     total cpu time spent up to now is      347.2 secs

     End of self-consistent calculation

          k = 0.0000 0.0000 0.0000 (  6807 PWs)   bands (ev):

   -24.9890 -12.3138  -9.4474  -7.0583

!    total energy              =     -34.38765996 Ry
     Harris-Foulkes estimate   =     -34.38765991 Ry
     estimated scf accuracy    <       0.00000015 Ry

     convergence has been achieved in   4 iterations

     Forces acting on atoms (Ry/au):

     atom    1 type  1   force =    -0.07623250    0.04041544   -0.03121264
     atom    2 type  2   force =     0.06751566   -0.02691077    0.00704300
     atom    3 type  2   force =     0.00856088   -0.01348414    0.02414743

     Total force =     0.120787     Total SCF correction =     0.000605

     Entering Dynamics:    iteration =   198
                           time      =   0.1916 pico-seconds


ATOMIC_POSITIONS (angstrom)
O        5.198655878   4.716958430   5.211815184
H        4.232733617   5.024772808   5.298240298
H        5.351617200   5.040955580   4.292216386


     kinetic energy (Ekin) =     0.00570739 Ry
     temperature           =   300.37509476 K 
     Ekin + Etot (const)   =   -34.38195257 Ry
     Message from routine dynamics:
     Total linear momentum <> 0

     Linear momentum :    0.4305421706    0.0834803834    0.0280687538

     Writing output data file ms2.save
     Check: negative starting charge=   -0.004442
     NEW-OLD atomic charge density approx. for the potential
     Check: negative starting charge=   -0.004440

     negative rho (up, down):  0.549E-02 0.000E+00

     total cpu time spent up to now is      348.0 secs

     per-process dynamical memory:    18.3 Mb

     Self-consistent Calculation

     iteration #  1     ecut=    25.00 Ry     beta=0.70
     Davidson diagonalization with overlap
     ethr =  1.00E-06,  avg # of iterations =  4.0

     negative rho (up, down):  0.504E-02 0.000E+00

     total cpu time spent up to now is      348.2 secs

     total energy              =     -34.38622104 Ry
     Harris-Foulkes estimate   =     -34.38625539 Ry
     estimated scf accuracy    <       0.00013251 Ry

     iteration #  2     ecut=    25.00 Ry     beta=0.70
     Davidson diagonalization with overlap
     ethr =  1.66E-06,  avg # of iterations =  2.0

     negative rho (up, down):  0.500E-02 0.000E+00

     total cpu time spent up to now is      348.5 secs

     total energy              =     -34.38623399 Ry
     Harris-Foulkes estimate   =     -34.38625294 Ry
     estimated scf accuracy    <       0.00003751 Ry

     iteration #  3     ecut=    25.00 Ry     beta=0.70
     Davidson diagonalization with overlap
     ethr =  4.69E-07,  avg # of iterations =  2.0

     negative rho (up, down):  0.498E-02 0.000E+00

     total cpu time spent up to now is      348.8 secs

     total energy              =     -34.38624400 Ry
     Harris-Foulkes estimate   =     -34.38624817 Ry
     estimated scf accuracy    <       0.00001062 Ry

     iteration #  4     ecut=    25.00 Ry     beta=0.70
     Davidson diagonalization with overlap
     ethr =  1.33E-07,  avg # of iterations =  2.0

     negative rho (up, down):  0.498E-02 0.000E+00

     total cpu time spent up to now is      349.0 secs

     End of self-consistent calculation

          k = 0.0000 0.0000 0.0000 (  6807 PWs)   bands (ev):

   -24.9840 -12.2280  -9.5082  -7.0592

!    total energy              =     -34.38624608 Ry
     Harris-Foulkes estimate   =     -34.38624606 Ry
     estimated scf accuracy    <       0.00000010 Ry

     convergence has been achieved in   4 iterations

     Forces acting on atoms (Ry/au):

     atom    1 type  1   force =    -0.08530558    0.04327068   -0.03340168
     atom    2 type  2   force =     0.07237851   -0.02928180    0.00978406
     atom    3 type  2   force =     0.01280227   -0.01400042    0.02356863

     Total force =     0.131804     Total SCF correction =     0.000468

     Entering Dynamics:    iteration =   199
                           time      =   0.1925 pico-seconds


ATOMIC_POSITIONS (angstrom)
O        5.209916514   4.721140484   5.214825873
H        4.243370996   5.024587344   5.299229549
H        5.333916011   5.032622421   4.283905052


     kinetic energy (Ekin) =     0.00584535 Ry
     temperature           =   307.63575128 K 
     Ekin + Etot (const)   =   -34.38040073 Ry
     Message from routine dynamics:
     Total linear momentum <> 0

     Linear momentum :    0.3998396490    0.1348785223    0.0943525448

     Writing output data file ms2.save
     Check: negative starting charge=   -0.004440
     NEW-OLD atomic charge density approx. for the potential
     Check: negative starting charge=   -0.004444

     negative rho (up, down):  0.545E-02 0.000E+00

     total cpu time spent up to now is      349.6 secs

     per-process dynamical memory:    18.3 Mb

     Self-consistent Calculation

     iteration #  1     ecut=    25.00 Ry     beta=0.70
     Davidson diagonalization with overlap
     ethr =  1.00E-06,  avg # of iterations =  4.0

     negative rho (up, down):  0.504E-02 0.000E+00

     total cpu time spent up to now is      349.9 secs

     total energy              =     -34.38534498 Ry
     Harris-Foulkes estimate   =     -34.38535490 Ry
     estimated scf accuracy    <       0.00010375 Ry

     iteration #  2     ecut=    25.00 Ry     beta=0.70
     Davidson diagonalization with overlap
     ethr =  1.30E-06,  avg # of iterations =  2.0

     negative rho (up, down):  0.499E-02 0.000E+00

     total cpu time spent up to now is      350.1 secs

     total energy              =     -34.38535255 Ry
     Harris-Foulkes estimate   =     -34.38535860 Ry
     estimated scf accuracy    <       0.00001625 Ry

     iteration #  3     ecut=    25.00 Ry     beta=0.70
     Davidson diagonalization with overlap
     ethr =  2.03E-07,  avg # of iterations =  2.0

     negative rho (up, down):  0.497E-02 0.000E+00

     total cpu time spent up to now is      350.4 secs

     total energy              =     -34.38535575 Ry
     Harris-Foulkes estimate   =     -34.38535977 Ry
     estimated scf accuracy    <       0.00000933 Ry

     iteration #  4     ecut=    25.00 Ry     beta=0.70
     Davidson diagonalization with overlap
     ethr =  1.17E-07,  avg # of iterations =  2.0

     negative rho (up, down):  0.497E-02 0.000E+00

     total cpu time spent up to now is      350.6 secs

     End of self-consistent calculation

          k = 0.0000 0.0000 0.0000 (  6807 PWs)   bands (ev):

   -24.9989 -12.1530  -9.5772  -7.0647

!    total energy              =     -34.38535767 Ry
     Harris-Foulkes estimate   =     -34.38535767 Ry
     estimated scf accuracy    <       0.00000008 Ry

     convergence has been achieved in   4 iterations

     Forces acting on atoms (Ry/au):

     atom    1 type  1   force =    -0.08704196    0.04477247   -0.04023310
     atom    2 type  2   force =     0.06986839   -0.02919504    0.01406243
     atom    3 type  2   force =     0.01716018   -0.01565236    0.02612005

     Total force =     0.135473     Total SCF correction =     0.000227

     Entering Dynamics:    iteration =   200
                           time      =   0.1935 pico-seconds


ATOMIC_POSITIONS (angstrom)
O        5.219402173   4.726962346   5.219444707
H        4.256570787   5.022286981   5.299257791
H        5.315976151   5.024676756   4.276470640


     kinetic energy (Ekin) =     0.00609611 Ry
     temperature           =   320.83256927 K 
     Ekin + Etot (const)   =   -34.37926156 Ry
     Message from routine dynamics:
     Total linear momentum <> 0

     Linear momentum :    0.3396098131    0.1914904639    0.1535900117
     Check: negative starting charge=   -0.004444
     NEW-OLD atomic charge density approx. for the potential
     Check: negative starting charge=   -0.004453

     negative rho (up, down):  0.540E-02 0.000E+00

     total cpu time spent up to now is      351.1 secs

     per-process dynamical memory:    18.3 Mb

     Self-consistent Calculation

     iteration #  1     ecut=    25.00 Ry     beta=0.70
     Davidson diagonalization with overlap
     ethr =  1.00E-06,  avg # of iterations =  4.0

     negative rho (up, down):  0.503E-02 0.000E+00

     total cpu time spent up to now is      351.5 secs

     total energy              =     -34.38488108 Ry
     Harris-Foulkes estimate   =     -34.38488235 Ry
     estimated scf accuracy    <       0.00009614 Ry

     iteration #  2     ecut=    25.00 Ry     beta=0.70
     Davidson diagonalization with overlap
     ethr =  1.20E-06,  avg # of iterations =  1.0

     negative rho (up, down):  0.498E-02 0.000E+00

     total cpu time spent up to now is      351.7 secs

     total energy              =     -34.38488772 Ry
     Harris-Foulkes estimate   =     -34.38488631 Ry
     estimated scf accuracy    <       0.00000654 Ry

     iteration #  3     ecut=    25.00 Ry     beta=0.70
     Davidson diagonalization with overlap
     ethr =  8.18E-08,  avg # of iterations =  2.0

     negative rho (up, down):  0.497E-02 0.000E+00

     total cpu time spent up to now is      352.0 secs

     total energy              =     -34.38488812 Ry
     Harris-Foulkes estimate   =     -34.38488898 Ry
     estimated scf accuracy    <       0.00000173 Ry

     iteration #  4     ecut=    25.00 Ry     beta=0.70
     Davidson diagonalization with overlap
     ethr =  2.16E-08,  avg # of iterations =  2.0

     negative rho (up, down):  0.497E-02 0.000E+00

     total cpu time spent up to now is      352.2 secs

     End of self-consistent calculation

          k = 0.0000 0.0000 0.0000 (  6807 PWs)   bands (ev):

   -25.0334 -12.0946  -9.6487  -7.0743

!    total energy              =     -34.38488851 Ry
     Harris-Foulkes estimate   =     -34.38488862 Ry
     estimated scf accuracy    <       0.00000017 Ry

     convergence has been achieved in   4 iterations

     Forces acting on atoms (Ry/au):

     atom    1 type  1   force =    -0.08232673    0.04460257   -0.05006478
     atom    2 type  2   force =     0.06083723   -0.02686757    0.01941256
     atom    3 type  2   force =     0.02165531   -0.01776852    0.03073072

     Total force =     0.133426     Total SCF correction =     0.000398

     The maximum number of steps has been reached.

     End of molecular dynamics calculation

     diffusion coefficients :
     atom     1   D =       0.00000196 cm^2/s
     atom     2   D =       0.00000243 cm^2/s
     atom     3   D =       0.00000029 cm^2/s

     < D > =       0.00000156 cm^2/s

     Entering Dynamics:    iteration =   201
                           time      =   0.1945 pico-seconds


ATOMIC_POSITIONS (angstrom)
O        5.226985044   4.734410027   5.224958760
H        4.270080036   5.018725657   5.299178432
H        5.298789151   5.016713059   4.270575624


     kinetic energy (Ekin) =     0.00634424 Ry
     temperature           =   333.89180455 K 
     Ekin + Etot (const)   =   -34.37854427 Ry
     Message from routine dynamics:
     Total linear momentum <> 0

     Linear momentum :    0.2717428204    0.2486210618    0.1899814683

     Writing output data file ms2.save

     init_run     :      0.35s CPU      0.55s WALL (       1 calls)
     electrons    :    182.85s CPU    211.32s WALL (     201 calls)
     update_pot   :     63.52s CPU     71.11s WALL (     200 calls)
     forces       :     27.65s CPU     29.60s WALL (     201 calls)

     Called by init_run:
     wfcinit      :      0.00s CPU      0.01s WALL (       1 calls)
     potinit      :      0.14s CPU      0.23s WALL (       1 calls)

     Called by electrons:
     c_bands      :     11.78s CPU     13.00s WALL (     773 calls)
     sum_band     :     35.71s CPU     39.68s WALL (     773 calls)
     v_of_rho     :     86.65s CPU    100.87s WALL (     974 calls)
     newd         :     24.81s CPU     27.10s WALL (     974 calls)
     mix_rho      :      7.78s CPU      8.73s WALL (     773 calls)

     Called by c_bands:
     init_us_2    :      0.34s CPU      0.36s WALL (    1547 calls)
     regterg      :     11.36s CPU     12.42s WALL (     773 calls)

     Called by *egterg:
     h_psi        :     10.04s CPU     10.94s WALL (    2663 calls)
     s_psi        :      0.13s CPU      0.14s WALL (    2663 calls)
     g_psi        :      0.06s CPU      0.07s WALL (    1889 calls)
     rdiaghg      :      0.27s CPU      0.31s WALL (    2462 calls)

     Called by h_psi:
     add_vuspsi   :      0.14s CPU      0.15s WALL (    2663 calls)

     General routines
     calbec       :      0.44s CPU      0.55s WALL (    4240 calls)
     fft          :     80.11s CPU    101.08s WALL (   15382 calls)
     ffts         :      1.89s CPU      2.28s WALL (    1747 calls)
     fftw         :      8.17s CPU      9.04s WALL (   11892 calls)
     interpolate  :     12.15s CPU     14.07s WALL (    1747 calls)
     davcio       :      0.03s CPU      0.05s WALL (     773 calls)

     Parallel routines
     fft_scatter  :     43.37s CPU     64.81s WALL (   29021 calls)

     PWSCF        :  5m 9.48s CPU     5m52.56s WALL


   This run was terminated on:  18:20:13  11Feb2015            

=------------------------------------------------------------------------------=
   JOB DONE.
=------------------------------------------------------------------------------=
