LAMMPS data file

388 atoms
256 bonds
128 angles

4 atom types
1 bond types
1 angle types

0.0 15.86 xlo xhi
0.0 15.86 ylo yhi
0.0 15.86 zlo zhi

Masses

1 14.0007
2 1.008
3 15.9994
4 1.008

Pair Coeffs

1 0.070 3.5280
2 0.012 1.5502
3 0.102 3.188
4 0.0 0.0

Bond Coeffs

1 450.0 0.9572

Angle Coeffs

1 55.0 104.52 0.0 0.0

Atoms

1 0 1 -1.125 7.93 7.93 7.93
2 0 2 0.375 7.4133 7.8927 8.82247
3 0 2 0.375 8.2342 6.9953 7.95914
4 0 2 0.375 7.12361 8.0884 7.3436
5 1 3 -0.830 13.5897 1.84391 1.936
6 1 4 0.415 13.5826 2.41496 2.7042
7 1 4 0.415 12.679 1.35159 1.9954
8 1 3 -0.830 1.37063 8.4468 9.2267
9 1 4 0.415 0.97581 7.8745 8.56885
10 1 4 0.415 1.50027 9.27979 8.77335
11 1 3 -0.830 0.21172 1.15781 7.74305
12 1 4 0.415 0.67709 0.32735 7.843
13 1 4 0.415 15.1568 0.94373 7.92577
14 1 3 -0.830 7.9905 9.40799 2.3996
15 1 4 0.415 8.6215 9.94499 2.8788
16 1 4 0.415 7.6698 8.7797 3.0466
17 1 3 -0.830 7.1652 0.75953 14.393
18 1 4 0.415 7.144 0.28833 15.226
19 1 4 0.415 7.1776 1.68407 14.6407
20 1 3 -0.830 12.1431 11.2834 8.34184
21 1 4 0.415 12.4681 10.7213 9.04524
22 1 4 0.415 11.9863 10.6861 7.61047
23 1 3 -0.830 11.0986 3.41272 0.4597
24 1 4 0.415 10.339 3.01522 0.8855
25 1 4 0.415 11.7773 2.73914 0.5022
26 1 3 -0.830 6.65541 15.8087 11.6505
27 1 4 0.415 7.4808 15.4053 11.3819
28 1 4 0.415 6.66081 15.7532 12.606
29 1 3 -0.830 13.2704 3.05181 4.7747
30 1 4 0.415 13.1124 2.22688 5.2338
31 1 4 0.415 12.3046 3.40562 4.6093
32 1 3 -0.830 2.15581 11.1981 9.26773
33 1 4 0.415 2.28571 11.277 8.32269
34 1 4 0.415 2.96791 10.8071 9.58985
35 1 3 -0.830 4.89691 0.29145 4.4954
36 1 4 0.415 5.07851 0.36207 3.5582
37 1 4 0.415 5.02891 15.2249 4.6963
38 1 3 -0.830 4.95141 9.23279 14.448
39 1 4 0.415 5.18161 10.0469 14.8958
40 1 4 0.415 4.05121 9.36789 14.1522
41 1 3 -0.830 2.64221 6.8315 15.3808
42 1 4 0.415 2.49491 6.2822 0.2907
43 1 4 0.415 3.58861 6.7996 15.2408
44 1 3 -0.830 2.85161 12.409 14.4307
45 1 4 0.415 2.92681 12.1054 15.3354
46 1 4 0.415 3.75331 12.4352 14.1106
47 1 3 -0.830 10.9344 0.82216 1.787
48 1 4 0.415 10.7348 0.36615 2.6046
49 1 4 0.415 10.5736 0.25791 1.1032
50 1 3 -0.830 12.8932 7.1473 8.17195
51 1 4 0.415 12.4971 7.8016 7.59639
52 1 4 0.415 13.0615 7.5872 9.01865
53 1 3 -0.830 2.12451 1.52905 0.9877
54 1 4 0.415 2.97261 1.92871 0.7947
55 1 4 0.415 1.94286 1.77777 1.894
56 1 3 -0.830 7.7479 13.6405 6.98849
57 1 4 0.415 8.7046 13.6549 6.96148
58 1 4 0.415 7.5224 14.1417 7.77221
59 1 3 -0.830 5.59381 13.2189 10.2297
60 1 4 0.415 5.33421 12.5134 9.63717
61 1 4 0.415 5.81431 13.949 9.65134
62 1 3 -0.830 11.9173 6.1408 5.1676
63 1 4 0.415 11.2539 6.8262 5.087
64 1 4 0.415 11.4155 5.3314 5.2638
65 1 3 -0.830 12.6025 9.91309 10.6136
66 1 4 0.415 11.8448 9.37789 10.3776
67 1 4 0.415 12.323 10.3947 11.3922
68 1 3 -0.830 9.7622 7.9245 5.572
69 1 4 0.415 9.5129 8.1241 6.4743
70 1 4 0.415 8.9474 8.0004 5.0755
71 1 3 -0.830 7.4207 15.5725 8.73032
72 1 4 0.415 7.05451 0.54684 9.02347
73 1 4 0.415 8.1899 15.44 9.28445
74 1 3 -0.830 8.0798 3.16795 2.4816
75 1 4 0.415 7.6399 2.95005 1.6598
76 1 4 0.415 7.3967 3.08972 3.1475
77 1 3 -0.830 4.39861 2.75194 13.468
78 1 4 0.415 3.65251 3.31975 13.2754
79 1 4 0.415 4.11281 1.87966 13.1967
80 1 3 -0.830 2.25661 4.804 13.2797
81 1 4 0.415 2.18321 5.3791 14.0413
82 1 4 0.415 1.44835 4.2912 13.2874
83 1 3 -0.830 11.832 3.58929 12.1252
84 1 4 0.415 11.9026 4.2287 11.4165
85 1 4 0.415 11.8774 2.73945 11.6872
86 1 3 -0.830 1.60901 14.8121 8.47956
87 1 4 0.415 1.54784 14.351 7.64302
88 1 4 0.415 1.17744 14.2312 9.106
89 1 3 -0.830 5.67431 7.2442 12.5398
90 1 4 0.415 4.78971 7.1893 12.1784
91 1 4 0.415 5.62501 7.9458 13.1892
92 1 3 -0.830 3.53061 14.0244 1.0911
93 1 4 0.415 2.82741 14.5304 0.6841
94 1 4 0.415 3.23091 13.8753 1.9879
95 1 3 -0.830 0.99009 13.1505 6.2765
96 1 4 0.415 1.07289 13.5749 5.4225
97 1 4 0.415 0.09898 12.8011 6.2855
98 1 3 -0.830 10.2265 8.8357 9.59947
99 1 4 0.415 9.6751 9.0903 8.85961
100 1 4 0.415 9.6253 8.4126 10.2124
101 1 3 -0.830 5.56691 6.5948 0.1289
102 1 4 0.415 6.36141 6.4513 0.6433
103 1 4 0.415 5.47571 7.5468 0.0889
104 1 3 -0.830 8.4078 7.7415 11.3879
105 1 4 0.415 8.8061 7.1414 12.0183
106 1 4 0.415 7.47 7.5572 11.4407
107 1 3 -0.830 5.06471 0.44853 1.8375
108 1 4 0.415 4.90611 1.17698 1.2371
109 1 4 0.415 4.49971 15.6057 1.5166
110 1 3 -0.830 10.6088 3.75435 4.7336
111 1 4 0.415 9.9571 3.99274 5.3929
112 1 4 0.415 10.1133 3.69533 3.9168
113 1 3 -0.830 2.77081 0.62085 12.6499
114 1 4 0.415 2.25931 1.21149 12.0969
115 1 4 0.415 2.83601 15.6725 12.1414
116 1 3 -0.830 3.44301 10.0353 1.3414
117 1 4 0.415 2.97561 10.1487 2.169
118 1 4 0.415 2.76671 9.76919 0.7185
119 1 3 -0.830 11.086 1.42492 10.543
120 1 4 0.415 10.5921 1.63996 9.75181
121 1 4 0.415 10.6458 0.65278 10.8983
122 1 3 -0.830 3.09721 6.8319 11.4329
123 1 4 0.415 2.31831 7.0621 10.9263
124 1 4 0.415 2.87941 5.9936 11.8404
125 1 3 -0.830 4.49271 2.88931 0.1505
126 1 4 0.415 4.47731 2.80453 15.0572
127 1 4 0.415 4.03751 3.71292 0.3256
128 1 3 -0.830 11.1514 12.622 4.3464
129 1 4 0.415 10.8775 13.466 4.7052
130 1 4 0.415 11.9995 12.451 4.7558
131 1 3 -0.830 15.43 6.2901 12.0877
132 1 4 0.415 15.6291 5.4397 11.696
133 1 4 0.415 15.34 6.8829 11.3416
134 1 3 -0.830 15.7969 13.8673 13.3102
135 1 4 0.415 0.46886 14.3913 13.909
136 1 4 0.415 0.56624 13.3026 12.8615
137 1 3 -0.830 13.2228 7.954 14.9444
138 1 4 0.415 14.1709 8.079 14.9027
139 1 4 0.415 12.8599 8.4324 15.7279
140 1 3 -0.830 9.9739 12.3358 9.93776
141 1 4 0.415 10.7761 12.0205 9.52149
142 1 4 0.415 9.65 11.5843 10.4344
143 1 3 -0.830 15.1582 15.5385 3.7436
144 1 4 0.415 15.4028 15.2815 2.8546
145 1 4 0.415 14.9329 0.60601 3.6719
146 1 3 -0.830 7.2245 3.22074 15.4466
147 1 4 0.415 7.3996 4.1132 15.1481
148 1 4 0.415 6.31601 3.24219 15.7474
149 1 3 -0.830 7.6044 5.5778 13.9944
150 1 4 0.415 6.86361 6.1831 13.9615
151 1 4 0.415 7.6721 5.233 13.1041
152 1 3 -0.830 1.47793 9.98219 3.5106
153 1 4 0.415 0.8794 10.2067 4.2231
154 1 4 0.415 1.17057 9.1313 3.1981
155 1 3 -0.830 8.5045 15.5457 3.831
156 1 4 0.415 8.2578 15.6942 2.9182
157 1 4 0.415 7.7228 15.1661 4.2323
158 1 3 -0.830 13.5349 12.9834 14.6632
159 1 4 0.415 13.2543 12.1566 14.2711
160 1 4 0.415 14.3923 13.1549 14.2738
161 1 3 -0.830 7.6481 5.8573 1.7122
162 1 4 0.415 7.6326 4.9077 1.8317
163 1 4 0.415 8.4804 6.0302 1.2721
164 1 3 -0.830 0.5306 4.1096 0.6392
165 1 4 0.415 15.4646 4.3503 0.6672
166 1 4 0.415 0.5877 3.45641 15.8017
167 1 3 -0.830 10.0478 5.2739 9.29665
168 1 4 0.415 9.5051 5.1121 10.0683
169 1 4 0.415 10.8134 5.7383 9.63478
170 1 3 -0.830 13.8569 6.2467 2.7945
171 1 4 0.415 13.7466 5.7167 2.005
172 1 4 0.415 13.3353 5.7977 3.4597
173 1 3 -0.830 0.52004 7.159 3.4486
174 1 4 0.415 15.5307 6.8898 3.0987
175 1 4 0.415 1.12584 6.4765 3.1598
176 1 3 -0.830 8.6456 4.668 11.44
177 1 4 0.415 8.2157 3.81329 11.4696
178 1 4 0.415 9.1655 4.703 12.2431
179 1 3 -0.830 12.2297 14.335 12.0962
180 1 4 0.415 12.7656 15.2167 12.0224
181 1 4 0.415 12.4717 13.9589 12.9425
182 1 3 -0.830 3.91591 6.4951 6.90025
183 1 4 0.415 4.62121 5.9062 6.5401
184 1 4 0.415 3.87131 7.1493 6.1108
185 1 3 -0.830 11.6718 0.44377 14.6873
186 1 4 0.415 12.4801 0.007003 14.9558
187 1 4 0.415 11.9413 1.33692 14.4733
188 1 3 -0.830 14.5993 5.3686 6.1637
189 1 4 0.415 13.8754 5.9493 6.3982
190 1 4 0.415 14.2068 4.7198 5.5795
191 1 3 -0.830 3.53331 11.1577 6.94574
192 1 4 0.415 4.44101 11.2932 7.21745
193 1 4 0.415 3.25281 12.0101 6.5204
194 1 3 -0.830 3.23811 14.046 11.3713
195 1 4 0.415 4.03431 13.716 10.955
196 1 4 0.415 2.52781 13.7403 10.8071
197 1 3 -0.830 13.3158 12.2326 1.3375
198 1 4 0.415 13.4259 12.5035 0.4261
199 1 4 0.415 14.2086 12.1387 1.6695
200 1 3 -0.830 5.98631 11.4641 12.2851
201 1 4 0.415 5.89281 12.2575 11.7577
202 1 4 0.415 6.07041 11.782 13.184
203 1 3 -0.830 9.534 15.1118 13.6335
204 1 4 0.415 10.3847 15.4744 13.8809
205 1 4 0.415 8.8963 15.7241 14.0004
206 1 3 -0.830 9.243 15.1478 10.6907
207 1 4 0.415 9.6963 14.3206 10.2783
208 1 4 0.415 9.4156 14.9499 11.6262
209 1 3 -0.830 6.15681 10.866 1.0972
210 1 4 0.415 5.35591 10.4526 1.4195
211 1 4 0.415 6.86411 10.3244 1.4473
212 1 3 -0.830 8.7688 10.7956 11.9423
213 1 4 0.415 8.6694 9.84629 12.0134
214 1 4 0.415 7.8917 11.1418 12.1073
215 1 3 -0.830 10.3947 13.0239 1.6827
216 1 4 0.415 11.2267 12.6878 1.3497
217 1 4 0.415 10.386 12.7714 2.6059
218 1 3 -0.830 12.0588 6.4024 11.2336
219 1 4 0.415 11.5901 7.0252 11.7892
220 1 4 0.415 13.0688 6.4984 11.487
221 1 3 -0.830 11.9757 9.40829 6.4287
222 1 4 0.415 12.7715 9.29919 5.9081
223 1 4 0.415 11.2934 8.9723 5.9182
224 1 3 -0.830 10.3322 14.8188 5.7681
225 1 4 0.415 11.0401 15.5328 5.6001
226 1 4 0.415 9.7295 14.937 5.0339
227 1 3 -0.830 2.78981 2.05654 3.928
228 1 4 0.415 1.94939 1.95793 4.3754
229 1 4 0.415 3.37031 1.43567 4.3682
230 1 3 -0.830 13.2801 15.8349 9.21261
231 1 4 0.415 13.4224 14.8411 9.50011
232 1 4 0.415 12.3636 0.23119 9.62577
233 1 3 -0.830 15.7725 4.014 10.4392
234 1 4 0.415 0.49984 4.03729 9.68377
235 1 4 0.415 14.9002 4.1496 10.0693
236 1 3 -0.830 0.96982 10.371 15.4324
237 1 4 0.415 1.44078 10.8353 14.7404
238 1 4 0.415 0.66139 9.56679 15.0148
239 1 3 -0.830 4.62901 7.7652 9.23486
240 1 4 0.415 4.27551 7.5177 8.38046
241 1 4 0.415 4.17051 7.2004 9.85702
242 1 3 -0.830 2.42461 5.1399 2.3507
243 1 4 0.415 2.76161 4.6185 3.0793
244 1 4 0.415 1.85 4.5416 1.873
245 1 3 -0.830 3.60171 8.721 5.3609
246 1 4 0.415 4.00711 9.208 6.0783
247 1 4 0.415 3.64141 9.31739 4.6134
248 1 3 -0.830 6.08331 12.6039 14.784
249 1 4 0.415 6.89331 13.0876 14.9457
250 1 4 0.415 6.00351 12.0124 15.5323
251 1 3 -0.830 9.1808 4.6422 6.5879
252 1 4 0.415 9.0597 3.80276 7.12378
253 1 4 0.415 9.6744 5.1745 7.30382
254 1 3 -0.830 0.70726 2.75373 14.1128
255 1 4 0.415 15.6312 2.65179 13.9407
256 1 4 0.415 1.02884 1.85958 14.2282
257 1 3 -0.830 2.19251 4.804 8.83872
258 1 4 0.415 2.97831 4.4522 9.25687
259 1 4 0.415 2.52231 5.3163 8.10048
260 1 3 -0.830 14.0406 12.2849 6.0989
261 1 4 0.415 14.2672 11.3808 5.8811
262 1 4 0.415 13.663 12.2328 7.06896
263 1 3 -0.830 0.34857 2.49965 5.1043
264 1 4 0.415 0.40698 2.1637 5.9987
265 1 4 0.415 15.5751 3.21529 5.1576
266 1 3 -0.830 11.1308 8.0364 13.1614
267 1 4 0.415 10.655 8.7778 13.5358
268 1 4 0.415 11.9601 8.0176 13.6392
269 1 3 -0.830 6.88001 2.55341 11.8766
270 1 4 0.415 6.27921 2.9609 12.5006
271 1 4 0.415 6.82011 1.6164 12.0629
272 1 3 -0.830 7.4443 13.0066 2.2816
273 1 4 0.415 8.2825 12.6621 1.9734
274 1 4 0.415 6.79441 12.3849 1.9542
275 1 3 -0.830 9.6357 6.7003 15.8522
276 1 4 0.415 9.2166 6.0604 15.2767
277 1 4 0.415 10.4723 6.2994 0.2279
278 1 3 -0.830 13.7262 5.363 0.1759
279 1 4 0.415 13.8006 4.6788 15.3707
280 1 4 0.415 13.5834 6.1677 15.5376
281 1 3 -0.830 5.39321 2.30802 6.2995
282 1 4 0.415 6.33621 2.24789 6.4525
283 1 4 0.415 5.21701 1.65095 5.6261
284 1 3 -0.830 4.04371 1.60805 9.34963
285 1 4 0.415 4.30681 1.07627 10.1008
286 1 4 0.415 3.39871 1.07097 8.8895
287 1 3 -0.830 9.9052 3.92918 13.9489
288 1 4 0.415 10.574 3.88259 13.2658
289 1 4 0.415 10.3396 3.59389 14.7332
290 1 3 -0.830 13.6538 13.1586 9.7726
291 1 4 0.415 13.133 13.1201 10.5748
292 1 4 0.415 13.1228 12.7024 9.11973
293 1 3 -0.830 0.88827 13.0533 10.4897
294 1 4 0.415 15.8127 12.8778 10.3894
295 1 4 0.415 1.31854 12.316 10.0567
296 1 3 -0.830 9.792 10.153 14.9035
297 1 4 0.415 9.2244 9.53729 15.3672
298 1 4 0.415 9.3017 10.9751 14.8994
299 1 3 -0.830 6.05201 11.0694 8.00642
300 1 4 0.415 6.65861 10.5288 8.51233
301 1 4 0.415 6.59651 11.7709 7.64905
302 1 3 -0.830 0.51933 14.7388 1.3084
303 1 4 0.415 0.93175 15.164 0.5115
304 1 4 0.415 0.40468 13.8025 1.1458
305 1 3 -0.830 8.0583 1.8523 6.0032
306 1 4 0.415 8.1762 1.48492 6.97117
307 1 4 0.415 8.0693 1.09268 5.4209
308 1 3 -0.830 4.13211 10.1016 10.6461
309 1 4 0.415 4.52011 9.39359 10.1319
310 1 4 0.415 4.86211 10.459 11.1517
311 1 3 -0.830 5.69311 3.785 3.6737
312 1 4 0.415 5.30561 3.39361 4.4565
313 1 4 0.415 5.43211 4.7052 3.7111
314 1 3 -0.830 13.244 4.3098 9.58766
315 1 4 0.415 13.0715 3.52185 9.07236
316 1 4 0.415 13.0166 5.0332 9.00345
317 1 3 -0.830 14.5598 0.27874 12.3529
318 1 4 0.415 14.9007 15.364 12.7997
319 1 4 0.415 15.2285 0.49453 11.7028
320 1 3 -0.830 1.85986 14.8854 14.7824
321 1 4 0.415 2.31051 14.0613 14.5982
322 1 4 0.415 2.21741 15.5944 14.1438
323 1 3 -0.830 9.0386 12.9335 15.1088
324 1 4 0.415 9.5116 13.1074 0.0626
325 1 4 0.415 9.3088 13.6374 14.5191
326 1 3 -0.830 0.111 7.9051 14.3198
327 1 4 0.415 15.8246 7.3618 13.5454
328 1 4 0.415 0.88177 7.5226 14.7391
329 1 3 -0.830 6.73321 2.3828 9.14002
330 1 4 0.415 6.62931 2.45248 10.089
331 1 4 0.415 5.85621 2.54003 8.7903
332 1 3 -0.830 0.09637 11.6355 1.8738
333 1 4 0.415 0.19991 11.203 1.0261
334 1 4 0.415 0.55511 11.066 2.4914
335 1 3 -0.830 0.75491 1.31126 10.8249
336 1 4 0.415 0.69488 2.25981 10.7114
337 1 4 0.415 1.22326 1.00576 10.048
338 1 3 -0.830 4.65231 6.4291 3.263
339 1 4 0.415 5.08231 7.1946 2.8818
340 1 4 0.415 3.87901 6.291 2.7161
341 1 3 -0.830 13.1218 0.29526 5.9778
342 1 4 0.415 13.8302 15.7088 5.5139
343 1 4 0.415 12.9944 15.64 6.86636
344 1 3 -0.830 11.9449 11.3415 13.1093
345 1 4 0.415 11.3292 11.7125 12.4775
346 1 4 0.415 11.4295 10.7004 13.5987
347 1 3 -0.830 11.7436 9.80949 1.2205
348 1 4 0.415 12.0746 10.6956 1.3669
349 1 4 0.415 11.1229 9.90149 0.4977
350 1 3 -0.830 7.5378 15.4677 0.9758
351 1 4 0.415 7.6998 14.4379 1.0781
352 1 4 0.415 6.68191 15.6089 1.3805
353 1 3 -0.830 14.4778 0.140283 15.5053
354 1 4 0.415 14.4207 0.9396 0.1687
355 1 4 0.415 14.5726 15.2982 0.2888
356 1 3 -0.830 6.25851 13.6639 4.6504
357 1 4 0.415 6.69951 13.4651 5.4764
358 1 4 0.415 6.75321 13.1773 3.9911
359 1 3 -0.830 13.7563 2.75419 13.8123
360 1 4 0.415 13.1811 3.19013 13.1837
361 1 4 0.415 13.8504 1.86369 13.4741
362 1 3 -0.830 6.16351 4.9912 6.4874
363 1 4 0.415 5.73701 4.1375 6.5616
364 1 4 0.415 7.09851 4.7899 6.4505
365 1 3 -0.830 2.68941 9.58259 13.2405
366 1 4 0.415 3.11041 9.77549 12.4029
367 1 4 0.415 2.10011 8.8526 13.0505
368 1 3 -0.830 1.98738 14.157 3.7895
369 1 4 0.415 2.59421 14.8587 4.0251
370 1 4 0.415 1.26047 14.6038 3.3558
371 1 3 -0.830 14.6775 8.1558 10.4273
372 1 4 0.415 14.1849 8.9613 10.5845
373 1 4 0.415 15.4549 8.4399 9.94653
374 1 3 -0.830 7.4095 6.9907 4.2057
375 1 4 0.415 7.6852 6.3108 4.8204
376 1 4 0.415 7.466 6.5739 3.3458
377 1 3 -0.830 0.24688 7.5027 6.6536
378 1 4 0.415 15.578 6.717 6.5154
379 1 4 0.415 0.96943 7.4182 6.0315
380 1 3 -0.830 12.7542 8.7223 3.4519
381 1 4 0.415 12.3048 8.9458 2.6368
382 1 4 0.415 13.3435 7.9316 3.2427
383 1 3 -0.830 14.6945 9.82069 5.0609
384 1 4 0.415 14.0384 9.59709 4.4008
385 1 4 0.415 14.9294 8.9826 5.4593
386 1 3 -0.830 9.3886 2.58736 8.5857
387 1 4 0.415 9.5478 3.49686 8.83807
388 1 4 0.415 8.4965 2.40845 8.88301

Bonds

1 1 5 6
2 1 5 7
3 1 8 9
4 1 8 10
5 1 11 12
6 1 11 13
7 1 14 15
8 1 14 16
9 1 17 18
10 1 17 19
11 1 20 21
12 1 20 22
13 1 23 24
14 1 23 25
15 1 26 27
16 1 26 28
17 1 29 30
18 1 29 31
19 1 32 33
20 1 32 34
21 1 35 36
22 1 35 37
23 1 38 39
24 1 38 40
25 1 41 42
26 1 41 43
27 1 44 45
28 1 44 46
29 1 47 48
30 1 47 49
31 1 50 51
32 1 50 52
33 1 53 54
34 1 53 55
35 1 56 57
36 1 56 58
37 1 59 60
38 1 59 61
39 1 62 63
40 1 62 64
41 1 65 66
42 1 65 67
43 1 68 69
44 1 68 70
45 1 71 72
46 1 71 73
47 1 74 75
48 1 74 76
49 1 77 78
50 1 77 79
51 1 80 81
52 1 80 82
53 1 83 84
54 1 83 85
55 1 86 87
56 1 86 88
57 1 89 90
58 1 89 91
59 1 92 93
60 1 92 94
61 1 95 96
62 1 95 97
63 1 98 99
64 1 98 100
65 1 101 102
66 1 101 103
67 1 104 105
68 1 104 106
69 1 107 108
70 1 107 109
71 1 110 111
72 1 110 112
73 1 113 114
74 1 113 115
75 1 116 117
76 1 116 118
77 1 119 120
78 1 119 121
79 1 122 123
80 1 122 124
81 1 125 126
82 1 125 127
83 1 128 129
84 1 128 130
85 1 131 132
86 1 131 133
87 1 134 135
88 1 134 136
89 1 137 138
90 1 137 139
91 1 140 141
92 1 140 142
93 1 143 144
94 1 143 145
95 1 146 147
96 1 146 148
97 1 149 150
98 1 149 151
99 1 152 153
100 1 152 154
101 1 155 156
102 1 155 157
103 1 158 159
104 1 158 160
105 1 161 162
106 1 161 163
107 1 164 165
108 1 164 166
109 1 167 168
110 1 167 169
111 1 170 171
112 1 170 172
113 1 173 174
114 1 173 175
115 1 176 177
116 1 176 178
117 1 179 180
118 1 179 181
119 1 182 183
120 1 182 184
121 1 185 186
122 1 185 187
123 1 188 189
124 1 188 190
125 1 191 192
126 1 191 193
127 1 194 195
128 1 194 196
129 1 197 198
130 1 197 199
131 1 200 201
132 1 200 202
133 1 203 204
134 1 203 205
135 1 206 207
136 1 206 208
137 1 209 210
138 1 209 211
139 1 212 213
140 1 212 214
141 1 215 216
142 1 215 217
143 1 218 219
144 1 218 220
145 1 221 222
146 1 221 223
147 1 224 225
148 1 224 226
149 1 227 228
150 1 227 229
151 1 230 231
152 1 230 232
153 1 233 234
154 1 233 235
155 1 236 237
156 1 236 238
157 1 239 240
158 1 239 241
159 1 242 243
160 1 242 244
161 1 245 246
162 1 245 247
163 1 248 249
164 1 248 250
165 1 251 252
166 1 251 253
167 1 254 255
168 1 254 256
169 1 257 258
170 1 257 259
171 1 260 261
172 1 260 262
173 1 263 264
174 1 263 265
175 1 266 267
176 1 266 268
177 1 269 270
178 1 269 271
179 1 272 273
180 1 272 274
181 1 275 276
182 1 275 277
183 1 278 279
184 1 278 280
185 1 281 282
186 1 281 283
187 1 284 285
188 1 284 286
189 1 287 288
190 1 287 289
191 1 290 291
192 1 290 292
193 1 293 294
194 1 293 295
195 1 296 297
196 1 296 298
197 1 299 300
198 1 299 301
199 1 302 303
200 1 302 304
201 1 305 306
202 1 305 307
203 1 308 309
204 1 308 310
205 1 311 312
206 1 311 313
207 1 314 315
208 1 314 316
209 1 317 318
210 1 317 319
211 1 320 321
212 1 320 322
213 1 323 324
214 1 323 325
215 1 326 327
216 1 326 328
217 1 329 330
218 1 329 331
219 1 332 333
220 1 332 334
221 1 335 336
222 1 335 337
223 1 338 339
224 1 338 340
225 1 341 342
226 1 341 343
227 1 344 345
228 1 344 346
229 1 347 348
230 1 347 349
231 1 350 351
232 1 350 352
233 1 353 354
234 1 353 355
235 1 356 357
236 1 356 358
237 1 359 360
238 1 359 361
239 1 362 363
240 1 362 364
241 1 365 366
242 1 365 367
243 1 368 369
244 1 368 370
245 1 371 372
246 1 371 373
247 1 374 375
248 1 374 376
249 1 377 378
250 1 377 379
251 1 380 381
252 1 380 382
253 1 383 384
254 1 383 385
255 1 386 387
256 1 386 388

Angles

1 1 6 5 7
2 1 9 8 10
3 1 12 11 13
4 1 15 14 16
5 1 18 17 19
6 1 21 20 22
7 1 24 23 25
8 1 27 26 28
9 1 30 29 31
10 1 33 32 34
11 1 36 35 37
12 1 39 38 40
13 1 42 41 43
14 1 45 44 46
15 1 48 47 49
16 1 51 50 52
17 1 54 53 55
18 1 57 56 58
19 1 60 59 61
20 1 63 62 64
21 1 66 65 67
22 1 69 68 70
23 1 72 71 73
24 1 75 74 76
25 1 78 77 79
26 1 81 80 82
27 1 84 83 85
28 1 87 86 88
29 1 90 89 91
30 1 93 92 94
31 1 96 95 97
32 1 99 98 100
33 1 102 101 103
34 1 105 104 106
35 1 108 107 109
36 1 111 110 112
37 1 114 113 115
38 1 117 116 118
39 1 120 119 121
40 1 123 122 124
41 1 126 125 127
42 1 129 128 130
43 1 132 131 133
44 1 135 134 136
45 1 138 137 139
46 1 141 140 142
47 1 144 143 145
48 1 147 146 148
49 1 150 149 151
50 1 153 152 154
51 1 156 155 157
52 1 159 158 160
53 1 162 161 163
54 1 165 164 166
55 1 168 167 169
56 1 171 170 172
57 1 174 173 175
58 1 177 176 178
59 1 180 179 181
60 1 183 182 184
61 1 186 185 187
62 1 189 188 190
63 1 192 191 193
64 1 195 194 196
65 1 198 197 199
66 1 201 200 202
67 1 204 203 205
68 1 207 206 208
69 1 210 209 211
70 1 213 212 214
71 1 216 215 217
72 1 219 218 220
73 1 222 221 223
74 1 225 224 226
75 1 228 227 229
76 1 231 230 232
77 1 234 233 235
78 1 237 236 238
79 1 240 239 241
80 1 243 242 244
81 1 246 245 247
82 1 249 248 250
83 1 252 251 253
84 1 255 254 256
85 1 258 257 259
86 1 261 260 262
87 1 264 263 265
88 1 267 266 268
89 1 270 269 271
90 1 273 272 274
91 1 276 275 277
92 1 279 278 280
93 1 282 281 283
94 1 285 284 286
95 1 288 287 289
96 1 291 290 292
97 1 294 293 295
98 1 297 296 298
99 1 300 299 301
100 1 303 302 304
101 1 306 305 307
102 1 309 308 310
103 1 312 311 313
104 1 315 314 316
105 1 318 317 319
106 1 321 320 322
107 1 324 323 325
108 1 327 326 328
109 1 330 329 331
110 1 333 332 334
111 1 336 335 337
112 1 339 338 340
113 1 342 341 343
114 1 345 344 346
115 1 348 347 349
116 1 351 350 352
117 1 354 353 355
118 1 357 356 358
119 1 360 359 361
120 1 363 362 364
121 1 366 365 367
122 1 369 368 370
123 1 372 371 373
124 1 375 374 376
125 1 378 377 379
126 1 381 380 382
127 1 384 383 385
128 1 387 386 388
