
     Program PWSCF v.5.0.2 (svn rev. 9392) starts on 24Feb2015 at 13:56: 4 

     This program is part of the open-source Quantum ESPRESSO suite
     for quantum simulation of materials; please cite
         "P. Giannozzi et al., J. Phys.:Condens. Matter 21 395502 (2009);
          URL http://www.quantum-espresso.org", 
     in publications or presentations arising from this work. More details at
     http://www.quantum-espresso.org/quote.php

     Parallel version (MPI), running on    20 processors
     R & G space division:  proc/nbgrp/npool/nimage =      20

     Current dimensions of program PWSCF are:
     Max number of different atomic species (ntypx) = 10
     Max number of k-points (npk) =  40000
     Max angular momentum in pseudopotentials (lmaxx) =  3
     Waiting for input...
     Reading input from standard input

     gamma-point specific algorithms are used
 XXXXXXXXXX EC SUPPORT ENABLED XXXXXXXXXX

     Subspace diagonalization in iterative solution of the eigenvalue problem:
     a serial algorithm will be used


     Parallelization info
     --------------------
     sticks:   dense  smooth     PW     G-vecs:    dense   smooth      PW
     Min         398     158     38                26705     6726     838
     Max         402     160     40                26712     6780     848
     Sum        7981    3181    793               534137   135043   16879
     Tot        3991    1591    397


     Title: 
     QMMM                                                                       


     bravais-lattice index     =            1
     lattice parameter (alat)  =      20.0000  a.u.
     unit-cell volume          =    8000.0000 (a.u.)^3
     number of atoms/cell      =           12
     number of atomic types    =            2
     number of electrons       =        30.00
     number of Kohn-Sham states=           15
     kinetic-energy cutoff     =      25.0000  Ry
     charge density cutoff     =     250.0000  Ry
     convergence threshold     =      1.0E-06
     mixing beta               =       0.7000
     number of iterations used =            8  plain     mixing
     Exchange-correlation      =  SLA  PW   PBE  PBE ( 1 4 3 4 0)
     EXX-fraction              =        0.00
     nstep                     =          101


     celldm(1)=  20.000000  celldm(2)=   0.000000  celldm(3)=   0.000000
     celldm(4)=   0.000000  celldm(5)=   0.000000  celldm(6)=   0.000000

     crystal axes: (cart. coord. in units of alat)
               a(1) = (   1.000000   0.000000   0.000000 )  
               a(2) = (   0.000000   1.000000   0.000000 )  
               a(3) = (   0.000000   0.000000   1.000000 )  

     reciprocal axes: (cart. coord. in units 2 pi/alat)
               b(1) = (  1.000000  0.000000  0.000000 )  
               b(2) = (  0.000000  1.000000  0.000000 )  
               b(3) = (  0.000000  0.000000  1.000000 )  


     PseudoPot. # 1 for C  read from file:
     pseudo/C.pbe-van_bm.UPF
     MD5 check sum: 1a69bf6b8db32088f5b2163dbdb77a27
     Pseudo is Ultrasoft, Zval =  4.0
     Generated by new atomic code, or converted to UPF format
     Using radial grid of  721 points,  4 beta functions with: 
                l(1) =   0
                l(2) =   0
                l(3) =   1
                l(4) =   1
     Q(r) pseudized with  8 coefficients,  rinner =    0.800   0.800   0.800


     PseudoPot. # 2 for H  read from file:
     pseudo/H.pbe-van_ak.UPF
     MD5 check sum: 077eb6d537518a38cb46c6de387227b7
     Pseudo is Ultrasoft, Zval =  1.0
     Generated by new atomic code, or converted to UPF format
     Using radial grid of  615 points,  1 beta functions with: 
                l(1) =   0
     Q(r) pseudized with  8 coefficients,  rinner =    0.800

     atomic species   valence    mass     pseudopotential
        C              4.00    12.01000     C ( 1.00)
        H              1.00     1.00800     H ( 1.00)

     No symmetry found



   Cartesian axes

     site n.     atom                  positions (alat units)
         1           C   tau(   1) = (   0.6210464   0.5201594   0.4513010  )
         2           H   tau(   2) = (   0.7155611   0.5356080   0.4141867  )
         3           C   tau(   3) = (   0.5576839   0.6196441   0.5052149  )
         4           H   tau(   4) = (   0.5956012   0.7148674   0.4985630  )
         5           C   tau(   5) = (   0.4366847   0.6007752   0.5546501  )
         6           H   tau(   6) = (   0.3821661   0.6787264   0.5933800  )
         7           C   tau(   7) = (   0.3800685   0.4796910   0.5559540  )
         8           H   tau(   8) = (   0.2908262   0.4574678   0.6016759  )
         9           C   tau(   9) = (   0.4451885   0.3801969   0.4966544  )
        10           H   tau(  10) = (   0.4014130   0.2873357   0.4936308  )
        11           C   tau(  11) = (   0.5622098   0.4017775   0.4398965  )
        12           H   tau(  12) = (   0.6115505   0.3237508   0.3948926  )

     number of k points=     1
                       cart. coord. in units 2pi/alat
        k(    1) = (   0.0000000   0.0000000   0.0000000), wk =   2.0000000

     Dense  grid:   267069 G-vectors     FFT dimensions: ( 108, 108, 108)

     Smooth grid:    67522 G-vectors     FFT dimensions: (  64,  64,  64)

     Largest allocated arrays     est. size (Mb)     dimensions
        Kohn-Sham Wavefunctions         0.10 Mb     (    422,   15)
        NL pseudopotentials             0.35 Mb     (    422,   54)
        Each V/rho on FFT grid          1.07 Mb     (  69984)
        Each G-vector array             0.10 Mb     (  13353)
        G-vector shells                 0.01 Mb     (   1751)
     Largest temporary arrays     est. size (Mb)     dimensions
        Auxiliary wavefunctions         0.19 Mb     (    422,   60)
        Each subspace H/S matrix        0.03 Mb     (  60,  60)
        Each <psi_i|beta_j> matrix      0.01 Mb     (     54,   15)
        Arrays for rho mixing           8.54 Mb     (  69984,   8)
 ****** END OF ADD_ESF COMPUTATION ******

     Initial potential from superposition of free atoms
     Check: negative starting charge=   -0.001499

     starting charge   29.99970, renormalised to   30.00000

     negative rho (up, down):  0.150E-02 0.000E+00
     Starting wfc are   30 randomized atomic wfcs

     total cpu time spent up to now is       22.8 secs

     per-process dynamical memory:    20.5 Mb

     Self-consistent Calculation

     iteration #  1     ecut=    25.00 Ry     beta=0.70
     Davidson diagonalization with overlap
     ethr =  1.00E-02,  avg # of iterations =  2.0

     negative rho (up, down):  0.698E-02 0.000E+00

     total cpu time spent up to now is       23.4 secs

     total energy              =     -75.09785022 Ry
     Harris-Foulkes estimate   =     -76.08817078 Ry
     estimated scf accuracy    <       1.49195654 Ry

     iteration #  2     ecut=    25.00 Ry     beta=0.70
     Davidson diagonalization with overlap
     ethr =  4.97E-03,  avg # of iterations =  2.0

     negative rho (up, down):  0.796E-02 0.000E+00

     total cpu time spent up to now is       23.9 secs

     total energy              =     -75.38506492 Ry
     Harris-Foulkes estimate   =     -75.64786265 Ry
     estimated scf accuracy    <       0.45088194 Ry

     iteration #  3     ecut=    25.00 Ry     beta=0.70
     Davidson diagonalization with overlap
     ethr =  1.50E-03,  avg # of iterations =  2.0

     negative rho (up, down):  0.888E-02 0.000E+00

     total cpu time spent up to now is       24.5 secs

     total energy              =     -75.49901263 Ry
     Harris-Foulkes estimate   =     -75.51070106 Ry
     estimated scf accuracy    <       0.02184088 Ry

     iteration #  4     ecut=    25.00 Ry     beta=0.70
     Davidson diagonalization with overlap
     ethr =  7.28E-05,  avg # of iterations =  2.0

     negative rho (up, down):  0.919E-02 0.000E+00

     total cpu time spent up to now is       25.1 secs

     total energy              =     -75.50362136 Ry
     Harris-Foulkes estimate   =     -75.50369297 Ry
     estimated scf accuracy    <       0.00022800 Ry

     iteration #  5     ecut=    25.00 Ry     beta=0.70
     Davidson diagonalization with overlap
     ethr =  7.60E-07,  avg # of iterations =  2.0

     negative rho (up, down):  0.924E-02 0.000E+00

     total cpu time spent up to now is       25.7 secs

     total energy              =     -75.50368613 Ry
     Harris-Foulkes estimate   =     -75.50370751 Ry
     estimated scf accuracy    <       0.00004455 Ry

     iteration #  6     ecut=    25.00 Ry     beta=0.70
     Davidson diagonalization with overlap
     ethr =  1.48E-07,  avg # of iterations =  3.0

     negative rho (up, down):  0.926E-02 0.000E+00

     total cpu time spent up to now is       26.3 secs

     total energy              =     -75.50369274 Ry
     Harris-Foulkes estimate   =     -75.50369653 Ry
     estimated scf accuracy    <       0.00000749 Ry

     iteration #  7     ecut=    25.00 Ry     beta=0.70
     Davidson diagonalization with overlap
     ethr =  2.50E-08,  avg # of iterations =  4.0

     negative rho (up, down):  0.926E-02 0.000E+00

     total cpu time spent up to now is       26.8 secs

     End of self-consistent calculation

          k = 0.0000 0.0000 0.0000 (  8440 PWs)   bands (ev):

   -20.7193 -18.0237 -17.8284 -14.3761 -14.2296 -12.3426 -10.6826 -10.3691
    -9.7677  -9.5728  -8.6064  -7.7569  -7.5838  -5.9144  -5.7691

!    total energy              =     -75.50369426 Ry
     Harris-Foulkes estimate   =     -75.50369493 Ry
     estimated scf accuracy    <       0.00000078 Ry

     convergence has been achieved in   7 iterations

     Forces acting on atoms (Ry/au):

     atom    1 type  1   force =     0.01711279   -0.01448352   -0.03590430
     atom    2 type  2   force =     0.01223399    0.00123817   -0.01225113
     atom    3 type  1   force =    -0.02856366    0.01988896   -0.00438574
     atom    4 type  2   force =     0.00739619   -0.00172087    0.01370442
     atom    5 type  1   force =    -0.02670098   -0.02199985    0.00178877
     atom    6 type  2   force =     0.00171793    0.00937749    0.00189534
     atom    7 type  1   force =     0.04953764    0.01134445   -0.02351429
     atom    8 type  2   force =    -0.00382769    0.01285577    0.00225270
     atom    9 type  1   force =    -0.02502548    0.04687549   -0.01388202
     atom   10 type  2   force =    -0.00803716    0.00016775   -0.00808587
     atom   11 type  1   force =     0.01007898    0.03747465    0.00748461
     atom   12 type  2   force =     0.00142241    0.00693549   -0.00690634

     Total force =     0.113976     Total SCF correction =     0.001583

     Molecular Dynamics Calculation
     mass C                =    12.01
     mass H                =     1.01
     Time step             =    20.00 a.u.,  0.9676 femto-seconds

     Entering Dynamics:    iteration =     1
                           time      =   0.0010 pico-seconds


ATOMIC_POSITIONS (angstrom)
C        6.573026621   5.504829897   4.776132279
H        7.574570483   5.668612564   4.382268128
C        5.901985000   6.558062227   5.347037015
H        6.304413184   7.565471691   5.278258125
C        4.621403009   6.357957226   5.870296714
H        4.044859067   7.184250188   6.280397756
C        4.022940120   5.076779614   5.883852071
H        3.077520229   4.842950874   6.368238923
C        4.711419208   4.024123145   5.256345201
H        4.247435311   3.040889255   5.223547953
C        5.950258615   4.252432253   4.655851784
H        6.472525023   3.427068877   4.178683830


     kinetic energy (Ekin) =     0.00000000 Ry
     temperature           =     0.00000000 K 
     Ekin + Etot (const)   =   -75.50369426 Ry

     Linear momentum :    0.0000000000    0.0000000000    0.0000000000
 ****** END OF FORCE_ESF COMPUTATION ******
     Check: negative starting charge=   -0.001499
     NEW-OLD atomic charge density approx. for the potential
     Check: negative starting charge=   -0.001499

     negative rho (up, down):  0.925E-02 0.000E+00
 ****** END OF ADD_ESF COMPUTATION ******

     total cpu time spent up to now is      135.7 secs

     per-process dynamical memory:    19.8 Mb

     Self-consistent Calculation

     iteration #  1     ecut=    25.00 Ry     beta=0.70
     Davidson diagonalization with overlap
     ethr =  1.00E-06,  avg # of iterations =  2.0

     Threshold (ethr) on eigenvalues was too large:
     Diagonalizing with lowered threshold

     Davidson diagonalization with overlap
     ethr =  2.19E-08,  avg # of iterations =  2.0

     negative rho (up, down):  0.925E-02 0.000E+00

     total cpu time spent up to now is      136.5 secs

     total energy              =     -75.50734264 Ry
     Harris-Foulkes estimate   =     -75.50734695 Ry
     estimated scf accuracy    <       0.00000740 Ry

     iteration #  2     ecut=    25.00 Ry     beta=0.70
     Davidson diagonalization with overlap
     ethr =  2.47E-08,  avg # of iterations =  3.0

     negative rho (up, down):  0.925E-02 0.000E+00

     total cpu time spent up to now is      137.1 secs

     total energy              =     -75.50734314 Ry
     Harris-Foulkes estimate   =     -75.50734652 Ry
     estimated scf accuracy    <       0.00000643 Ry

     iteration #  3     ecut=    25.00 Ry     beta=0.70
     Davidson diagonalization with overlap
     ethr =  2.14E-08,  avg # of iterations =  4.0

     negative rho (up, down):  0.926E-02 0.000E+00

     total cpu time spent up to now is      137.6 secs

     End of self-consistent calculation

          k = 0.0000 0.0000 0.0000 (  8440 PWs)   bands (ev):

   -20.7220 -18.0227 -17.8310 -14.3729 -14.2308 -12.3408 -10.6770 -10.3719
    -9.7667  -9.5734  -8.6087  -7.7567  -7.5862  -5.9158  -5.7731

!    total energy              =     -75.50734455 Ry
     Harris-Foulkes estimate   =     -75.50734505 Ry
     estimated scf accuracy    <       0.00000060 Ry

     convergence has been achieved in   3 iterations

     Forces acting on atoms (Ry/au):

     atom    1 type  1   force =     0.01704619   -0.01299691   -0.03559851
     atom    2 type  2   force =     0.01154355    0.00115793   -0.01194547
     atom    3 type  1   force =    -0.02734803    0.01979043   -0.00484823
     atom    4 type  2   force =     0.00673848   -0.00302998    0.01367109
     atom    5 type  1   force =    -0.02627987   -0.01986420    0.00204333
     atom    6 type  2   force =     0.00223505    0.00802270    0.00139676
     atom    7 type  1   force =     0.04680515    0.01114046   -0.02230706
     atom    8 type  2   force =    -0.00221621    0.01285193    0.00145389
     atom    9 type  1   force =    -0.02514746    0.04490926   -0.01418832
     atom   10 type  2   force =    -0.00756924    0.00163857   -0.00799521
     atom   11 type  1   force =     0.01062268    0.03629034    0.00659134
     atom   12 type  2   force =     0.00069825    0.00798781   -0.00623627

     Total force =     0.110022     Total SCF correction =     0.001361

     Entering Dynamics:    iteration =     2
                           time      =   0.0019 pico-seconds


ATOMIC_POSITIONS (angstrom)
C        6.573231077   5.503785263   4.775315012
H        7.576419227   5.668166170   4.379442642
C        5.900937397   6.558452827   5.347161849
H        6.307024036   7.566413295   5.282498701
C        4.620397232   6.357073439   5.870682865
H        4.045737707   7.187648684   6.282101599
C        4.024143262   5.076637342   5.883392406
H        3.074571514   4.847597252   6.368829141
C        4.710856808   4.024535333   5.256241272
H        4.247078808   3.038142965   5.222467921
C        5.950575082   4.252370393   4.656297539
H        6.473732273   3.426383568   4.176745903


     kinetic energy (Ekin) =     0.00033789 Ry
     temperature           =     3.23328916 K 
     Ekin + Etot (const)   =   -75.50700666 Ry
     Message from routine dynamics:
     Total linear momentum <> 0

     Linear momentum :   -0.0160252583   -0.0232976136   -0.0094665586
 ****** END OF FORCE_ESF COMPUTATION ******
     Check: negative starting charge=   -0.001499
     NEW-OLD atomic charge density approx. for the potential
     Check: negative starting charge=   -0.001498

     negative rho (up, down):  0.922E-02 0.000E+00
 ****** END OF ADD_ESF COMPUTATION ******

     total cpu time spent up to now is      246.6 secs

     per-process dynamical memory:    19.8 Mb

     Self-consistent Calculation

     iteration #  1     ecut=    25.00 Ry     beta=0.70
     Davidson diagonalization with overlap
     ethr =  1.00E-06,  avg # of iterations =  3.0

     negative rho (up, down):  0.923E-02 0.000E+00

     total cpu time spent up to now is      247.2 secs

     total energy              =     -75.51831949 Ry
     Harris-Foulkes estimate   =     -75.51833923 Ry
     estimated scf accuracy    <       0.00004080 Ry

     iteration #  2     ecut=    25.00 Ry     beta=0.70
     Davidson diagonalization with overlap
     ethr =  1.36E-07,  avg # of iterations =  3.0

     negative rho (up, down):  0.924E-02 0.000E+00

     total cpu time spent up to now is      247.8 secs

     total energy              =     -75.51832502 Ry
     Harris-Foulkes estimate   =     -75.51833312 Ry
     estimated scf accuracy    <       0.00001376 Ry

     iteration #  3     ecut=    25.00 Ry     beta=0.70
     Davidson diagonalization with overlap
     ethr =  4.59E-08,  avg # of iterations =  4.0

     negative rho (up, down):  0.924E-02 0.000E+00

     total cpu time spent up to now is      248.4 secs

     total energy              =     -75.51832869 Ry
     Harris-Foulkes estimate   =     -75.51833044 Ry
     estimated scf accuracy    <       0.00000379 Ry

     iteration #  4     ecut=    25.00 Ry     beta=0.70
     Davidson diagonalization with overlap
     ethr =  1.26E-08,  avg # of iterations =  3.0

     negative rho (up, down):  0.924E-02 0.000E+00

     total cpu time spent up to now is      248.9 secs

     End of self-consistent calculation

          k = 0.0000 0.0000 0.0000 (  8440 PWs)   bands (ev):

   -20.7260 -18.0171 -17.8362 -14.3617 -14.2314 -12.3330 -10.6593 -10.3764
    -9.7608  -9.5730  -8.6124  -7.7530  -7.5914  -5.9175  -5.7824

!    total energy              =     -75.51832940 Ry
     Harris-Foulkes estimate   =     -75.51832965 Ry
     estimated scf accuracy    <       0.00000032 Ry

     convergence has been achieved in   4 iterations

     Forces acting on atoms (Ry/au):

     atom    1 type  1   force =     0.01677050   -0.00878809   -0.03483984
     atom    2 type  2   force =     0.01007646    0.00100638   -0.01130930
     atom    3 type  1   force =    -0.02416679    0.01944514   -0.00622770
     atom    4 type  2   force =     0.00503557   -0.00613664    0.01350406
     atom    5 type  1   force =    -0.02506655   -0.01410572    0.00249609
     atom    6 type  2   force =     0.00344715    0.00430350    0.00005568
     atom    7 type  1   force =     0.03933902    0.01068860   -0.01925935
     atom    8 type  2   force =     0.00224172    0.01270508   -0.00079369
     atom    9 type  1   force =    -0.02530742    0.03973770   -0.01522031
     atom   10 type  2   force =    -0.00628665    0.00587584   -0.00774954
     atom   11 type  1   force =     0.01154457    0.03307434    0.00417548
     atom   12 type  2   force =    -0.00131373    0.01068364   -0.00447845

     Total force =     0.100392     Total SCF correction =     0.001019

     Entering Dynamics:    iteration =     3
                           time      =   0.0029 pico-seconds


ATOMIC_POSITIONS (angstrom)
C        6.573295728   5.501930667   4.773846120
H        7.577209423   5.667004202   4.375743588
C        5.899034713   6.559278547   5.347248703
H        6.311057848   7.568993563   5.288783889
C        4.618521485   6.355825847   5.871302052
H        4.047658626   7.193036969   6.285228754
C        4.025799713   5.076332735   5.882552940
H        3.069151059   4.855799742   6.368890315
C        4.710023132   4.024680988   5.255992165
H        4.248727852   3.032409989   5.221846483
C        5.951107407   4.251591476   4.656884692
H        6.475914563   3.423543508   4.173942495


     kinetic energy (Ekin) =     0.00126850 Ry
     temperature           =    12.13815633 K 
     Ekin + Etot (const)   =   -75.51706090 Ry
     Message from routine dynamics:
     Total linear momentum <> 0

     Linear momentum :   -0.0497997899   -0.0691463642   -0.0275914086
 ****** END OF FORCE_ESF COMPUTATION ******
     Check: negative starting charge=   -0.001498
     NEW-OLD atomic charge density approx. for the potential
     Check: negative starting charge=   -0.001497

     negative rho (up, down):  0.919E-02 0.000E+00
 ****** END OF ADD_ESF COMPUTATION ******

     total cpu time spent up to now is      357.7 secs

     per-process dynamical memory:    19.8 Mb

     Self-consistent Calculation

     iteration #  1     ecut=    25.00 Ry     beta=0.70
     Davidson diagonalization with overlap
     ethr =  1.00E-06,  avg # of iterations =  3.0

     negative rho (up, down):  0.920E-02 0.000E+00

     total cpu time spent up to now is      358.4 secs

     total energy              =     -75.53569275 Ry
     Harris-Foulkes estimate   =     -75.53572553 Ry
     estimated scf accuracy    <       0.00007414 Ry

     iteration #  2     ecut=    25.00 Ry     beta=0.70
     Davidson diagonalization with overlap
     ethr =  2.47E-07,  avg # of iterations =  3.0

     negative rho (up, down):  0.921E-02 0.000E+00

     total cpu time spent up to now is      359.0 secs

     total energy              =     -75.53570219 Ry
     Harris-Foulkes estimate   =     -75.53571530 Ry
     estimated scf accuracy    <       0.00002258 Ry

     iteration #  3     ecut=    25.00 Ry     beta=0.70
     Davidson diagonalization with overlap
     ethr =  7.53E-08,  avg # of iterations =  4.0

     negative rho (up, down):  0.922E-02 0.000E+00

     total cpu time spent up to now is      359.6 secs

     total energy              =     -75.53570813 Ry
     Harris-Foulkes estimate   =     -75.53571115 Ry
     estimated scf accuracy    <       0.00000659 Ry

     iteration #  4     ecut=    25.00 Ry     beta=0.70
     Davidson diagonalization with overlap
     ethr =  2.20E-08,  avg # of iterations =  3.0

     negative rho (up, down):  0.922E-02 0.000E+00

     total cpu time spent up to now is      360.1 secs

     End of self-consistent calculation

          k = 0.0000 0.0000 0.0000 (  8440 PWs)   bands (ev):

   -20.7335 -18.0112 -17.8468 -14.3484 -14.2367 -12.3253 -10.6385 -10.3856
    -9.7549  -9.5758  -8.6191  -7.7497  -7.6020  -5.9215  -5.7979

!    total energy              =     -75.53570930 Ry
     Harris-Foulkes estimate   =     -75.53570984 Ry
     estimated scf accuracy    <       0.00000068 Ry

     convergence has been achieved in   4 iterations

     Forces acting on atoms (Ry/au):

     atom    1 type  1   force =     0.01573907   -0.00228899   -0.03344164
     atom    2 type  2   force =     0.00813587    0.00084327   -0.01045006
     atom    3 type  1   force =    -0.01952404    0.01787460   -0.00830064
     atom    4 type  2   force =     0.00268998   -0.01016550    0.01312181
     atom    5 type  1   force =    -0.02234366   -0.00604301    0.00267727
     atom    6 type  2   force =     0.00467739   -0.00059532   -0.00159924
     atom    7 type  1   force =     0.02894399    0.01038061   -0.01522737
     atom    8 type  2   force =     0.00790706    0.01207197   -0.00361653
     atom    9 type  1   force =    -0.02485805    0.03296545   -0.01680530
     atom   10 type  2   force =    -0.00488918    0.01126784   -0.00741209
     atom   11 type  1   force =     0.01237219    0.02906832    0.00091539
     atom   12 type  2   force =    -0.00388760    0.01403511   -0.00222851

     Total force =     0.089303     Total SCF correction =     0.001489

     Entering Dynamics:    iteration =     4
                           time      =   0.0039 pico-seconds


ATOMIC_POSITIONS (angstrom)
C        6.573252581   5.499425253   4.771818265
H        7.577482816   5.665208690   4.370953711
C        5.896403575   6.560298883   5.347293004
H        6.315739470   7.570982585   5.297385748
C        4.615858582   6.354219694   5.872157995
H        4.050782901   7.198650906   6.288936322
C        4.027686540   5.075782652   5.881484447
H        3.063546752   4.866963460   6.367882434
C        4.708744463   4.024566496   5.255583230
H        4.251480503   3.026283831   5.221122836
C        5.951770602   4.250269917   4.657595215
H        6.477907477   3.420742377   4.170897159


     kinetic energy (Ekin) =     0.00247817 Ry
     temperature           =    23.71345369 K 
     Ekin + Etot (const)   =   -75.53323113 Ry
     Message from routine dynamics:
     Total linear momentum <> 0

     Linear momentum :   -0.0894612258   -0.1138297982   -0.0430347840
 ****** END OF FORCE_ESF COMPUTATION ******
     Check: negative starting charge=   -0.001497
     NEW-OLD atomic charge density approx. for the potential
     Check: negative starting charge=   -0.001495

     negative rho (up, down):  0.917E-02 0.000E+00
 ****** END OF ADD_ESF COMPUTATION ******

     total cpu time spent up to now is      468.8 secs

     per-process dynamical memory:    19.8 Mb

     Self-consistent Calculation

     iteration #  1     ecut=    25.00 Ry     beta=0.70
     Davidson diagonalization with overlap
     ethr =  1.00E-06,  avg # of iterations =  4.0

     negative rho (up, down):  0.918E-02 0.000E+00

     total cpu time spent up to now is      469.4 secs

     total energy              =     -75.55847346 Ry
     Harris-Foulkes estimate   =     -75.55851905 Ry
     estimated scf accuracy    <       0.00010128 Ry

     iteration #  2     ecut=    25.00 Ry     beta=0.70
     Davidson diagonalization with overlap
     ethr =  3.38E-07,  avg # of iterations =  3.0

     negative rho (up, down):  0.919E-02 0.000E+00

     total cpu time spent up to now is      470.1 secs

     total energy              =     -75.55848283 Ry
     Harris-Foulkes estimate   =     -75.55851091 Ry
     estimated scf accuracy    <       0.00005032 Ry

     iteration #  3     ecut=    25.00 Ry     beta=0.70
     Davidson diagonalization with overlap
     ethr =  1.68E-07,  avg # of iterations =  4.0

     negative rho (up, down):  0.919E-02 0.000E+00

     total cpu time spent up to now is      470.7 secs

     total energy              =     -75.55849638 Ry
     Harris-Foulkes estimate   =     -75.55850084 Ry
     estimated scf accuracy    <       0.00001034 Ry

     iteration #  4     ecut=    25.00 Ry     beta=0.70
     Davidson diagonalization with overlap
     ethr =  3.45E-08,  avg # of iterations =  3.0

     negative rho (up, down):  0.919E-02 0.000E+00

     total cpu time spent up to now is      471.2 secs

     End of self-consistent calculation

          k = 0.0000 0.0000 0.0000 (  8440 PWs)   bands (ev):

   -20.7417 -18.0054 -17.8622 -14.3360 -14.2479 -12.3210 -10.6225 -10.3973
    -9.7507  -9.5837  -8.6268  -7.7481  -7.6180  -5.9264  -5.8168

!    total energy              =     -75.55849824 Ry
     Harris-Foulkes estimate   =     -75.55849885 Ry
     estimated scf accuracy    <       0.00000081 Ry

     convergence has been achieved in   4 iterations

     Forces acting on atoms (Ry/au):

     atom    1 type  1   force =     0.01356888    0.00550574   -0.03138654
     atom    2 type  2   force =     0.00640897    0.00072720   -0.00964506
     atom    3 type  1   force =    -0.01427706    0.01412496   -0.01074871
     atom    4 type  2   force =     0.00029154   -0.01376761    0.01244186
     atom    5 type  1   force =    -0.01768072    0.00239637    0.00208804
     atom    6 type  2   force =     0.00514450   -0.00537224   -0.00297376
     atom    7 type  1   force =     0.01791226    0.01043148   -0.01134009
     atom    8 type  2   force =     0.01298750    0.01057522   -0.00609087
     atom    9 type  1   force =    -0.02320629    0.02634996   -0.01872472
     atom   10 type  2   force =    -0.00408029    0.01612439   -0.00705247
     atom   11 type  1   force =     0.01228380    0.02544358   -0.00234097
     atom   12 type  2   force =    -0.00620319    0.01675627   -0.00022236

     Total force =     0.080580     Total SCF correction =     0.001622

     Entering Dynamics:    iteration =     5
                           time      =   0.0048 pico-seconds


ATOMIC_POSITIONS (angstrom)
C        6.573035223   5.496460530   4.769308110
H        7.576798885   5.662775530   4.365394935
C        5.893133482   6.561467606   5.347272068
H        6.320450857   7.571495073   5.308102456
C        4.612483192   6.352455247   5.873260814
H        4.055246368   7.203319836   6.292881466
C        4.029546087   5.075006703   5.880292859
H        3.058969331   4.880699082   6.365205769
C        4.707023415   4.024076560   5.255004977
H        4.255510452   3.020981410   5.220453430
C        5.952537489   4.248356028   4.658394542
H        6.479123335   3.418693205   4.168193889


     kinetic energy (Ekin) =     0.00368011 Ry
     temperature           =    35.21474821 K 
     Ekin + Etot (const)   =   -75.55481813 Ry
     Message from routine dynamics:
     Total linear momentum <> 0

     Linear momentum :   -0.1341657749   -0.1544645542   -0.0553987050
 ****** END OF FORCE_ESF COMPUTATION ******
     Check: negative starting charge=   -0.001495
     NEW-OLD atomic charge density approx. for the potential
     Check: negative starting charge=   -0.001495

     negative rho (up, down):  0.916E-02 0.000E+00
 ****** END OF ADD_ESF COMPUTATION ******

     total cpu time spent up to now is      579.9 secs

     per-process dynamical memory:    19.8 Mb

     Self-consistent Calculation

     iteration #  1     ecut=    25.00 Ry     beta=0.70
     Davidson diagonalization with overlap
     ethr =  1.00E-06,  avg # of iterations =  4.0

     negative rho (up, down):  0.916E-02 0.000E+00

     total cpu time spent up to now is      580.5 secs

     total energy              =     -75.58570468 Ry
     Harris-Foulkes estimate   =     -75.58574815 Ry
     estimated scf accuracy    <       0.00010531 Ry

     iteration #  2     ecut=    25.00 Ry     beta=0.70
     Davidson diagonalization with overlap
     ethr =  3.51E-07,  avg # of iterations =  3.0

     negative rho (up, down):  0.917E-02 0.000E+00

     total cpu time spent up to now is      581.1 secs

     total energy              =     -75.58571288 Ry
     Harris-Foulkes estimate   =     -75.58574490 Ry
     estimated scf accuracy    <       0.00005872 Ry

     iteration #  3     ecut=    25.00 Ry     beta=0.70
     Davidson diagonalization with overlap
     ethr =  1.96E-07,  avg # of iterations =  4.0

     negative rho (up, down):  0.918E-02 0.000E+00

     total cpu time spent up to now is      581.7 secs

     total energy              =     -75.58572869 Ry
     Harris-Foulkes estimate   =     -75.58573329 Ry
     estimated scf accuracy    <       0.00001115 Ry

     iteration #  4     ecut=    25.00 Ry     beta=0.70
     Davidson diagonalization with overlap
     ethr =  3.72E-08,  avg # of iterations =  3.0

     negative rho (up, down):  0.918E-02 0.000E+00

     total cpu time spent up to now is      582.2 secs

     End of self-consistent calculation

          k = 0.0000 0.0000 0.0000 (  8440 PWs)   bands (ev):

   -20.7500 -18.0021 -17.8822 -14.3288 -14.2672 -12.3244 -10.6193 -10.4108
    -9.7513  -9.5989  -8.6349  -7.7505  -7.6393  -5.9327  -5.8372

!    total energy              =     -75.58573067 Ry
     Harris-Foulkes estimate   =     -75.58573126 Ry
     estimated scf accuracy    <       0.00000079 Ry

     convergence has been achieved in   4 iterations

     Forces acting on atoms (Ry/au):

     atom    1 type  1   force =     0.01009532    0.01436250   -0.02868189
     atom    2 type  2   force =     0.00544346    0.00089277   -0.00909938
     atom    3 type  1   force =    -0.00898949    0.00821746   -0.01332732
     atom    4 type  2   force =    -0.00163440   -0.01585428    0.01141686
     atom    5 type  1   force =    -0.01065000    0.01011345    0.00026897
     atom    6 type  2   force =     0.00431878   -0.00871636   -0.00358357
     atom    7 type  1   force =     0.00827957    0.01151315   -0.00849464
     atom    8 type  2   force =     0.01603282    0.00815320   -0.00746829
     atom    9 type  1   force =    -0.01983245    0.02194276   -0.02076831
     atom   10 type  2   force =    -0.00434206    0.01917545   -0.00673852
     atom   11 type  1   force =     0.01085681    0.02378413   -0.00489588
     atom   12 type  2   force =    -0.00757526    0.01803226    0.00096323

     Total force =     0.075890     Total SCF correction =     0.001637

     Entering Dynamics:    iteration =     6
                           time      =   0.0058 pico-seconds


ATOMIC_POSITIONS (angstrom)
C        6.572575747   5.493266700   4.766405642
H        7.574951209   5.659799942   4.359341773
C        5.889340888   6.562710054   5.347158343
H        6.324717583   7.570051860   5.320635585
C        4.608545246   6.350732391   5.874591702
H        4.060895242   7.206254976   6.296902227
C        4.031174201   5.074059473   5.879059621
H        3.056146133   4.896397401   6.360534186
C        4.704921397   4.023156571   5.254243927
H        4.260737609   3.017295733   5.219986447
C        5.953376752   4.245857121   4.659261853
H        6.479233181   3.417781326   4.166222761


     kinetic energy (Ekin) =     0.00477825 Ry
     temperature           =    45.72275771 K 
     Ekin + Etot (const)   =   -75.58095241 Ry
     Message from routine dynamics:
     Total linear momentum <> 0

     Linear momentum :   -0.1793594736   -0.1870304952   -0.0653586091
 ****** END OF FORCE_ESF COMPUTATION ******
     Check: negative starting charge=   -0.001495
     NEW-OLD atomic charge density approx. for the potential
     Check: negative starting charge=   -0.001496

     negative rho (up, down):  0.917E-02 0.000E+00
 ****** END OF ADD_ESF COMPUTATION ******

     total cpu time spent up to now is      690.9 secs

     per-process dynamical memory:    19.8 Mb

     Self-consistent Calculation

     iteration #  1     ecut=    25.00 Ry     beta=0.70
     Davidson diagonalization with overlap
     ethr =  1.00E-06,  avg # of iterations =  4.0

     negative rho (up, down):  0.917E-02 0.000E+00

     total cpu time spent up to now is      691.6 secs

     total energy              =     -75.61722762 Ry
     Harris-Foulkes estimate   =     -75.61728896 Ry
     estimated scf accuracy    <       0.00013950 Ry

     iteration #  2     ecut=    25.00 Ry     beta=0.70
     Davidson diagonalization with overlap
     ethr =  4.65E-07,  avg # of iterations =  3.0

     negative rho (up, down):  0.917E-02 0.000E+00

     total cpu time spent up to now is      692.2 secs

     total energy              =     -75.61724196 Ry
     Harris-Foulkes estimate   =     -75.61727809 Ry
     estimated scf accuracy    <       0.00006464 Ry

     iteration #  3     ecut=    25.00 Ry     beta=0.70
     Davidson diagonalization with overlap
     ethr =  2.15E-07,  avg # of iterations =  4.0

     negative rho (up, down):  0.917E-02 0.000E+00

     total cpu time spent up to now is      692.8 secs

     total energy              =     -75.61725919 Ry
     Harris-Foulkes estimate   =     -75.61726583 Ry
     estimated scf accuracy    <       0.00001535 Ry

     iteration #  4     ecut=    25.00 Ry     beta=0.70
     Davidson diagonalization with overlap
     ethr =  5.12E-08,  avg # of iterations =  3.0

     negative rho (up, down):  0.917E-02 0.000E+00

     total cpu time spent up to now is      693.4 secs

     total energy              =     -75.61726239 Ry
     Harris-Foulkes estimate   =     -75.61726285 Ry
     estimated scf accuracy    <       0.00000105 Ry

     iteration #  5     ecut=    25.00 Ry     beta=0.70
     Davidson diagonalization with overlap
     ethr =  3.50E-09,  avg # of iterations =  3.0

     negative rho (up, down):  0.917E-02 0.000E+00

     total cpu time spent up to now is      693.9 secs

     End of self-consistent calculation

          k = 0.0000 0.0000 0.0000 (  8440 PWs)   bands (ev):

   -20.7588 -18.0041 -17.9067 -14.3310 -14.2947 -12.3384 -10.6348 -10.4251
    -9.7590  -9.6232  -8.6436  -7.7596  -7.6664  -5.9420  -5.8580

!    total energy              =     -75.61726263 Ry
     Harris-Foulkes estimate   =     -75.61726269 Ry
     estimated scf accuracy    <       0.00000008 Ry

     convergence has been achieved in   5 iterations

     Forces acting on atoms (Ry/au):

     atom    1 type  1   force =     0.00488222    0.02309804   -0.02888118
     atom    2 type  2   force =     0.00544578    0.00126405   -0.00967114
     atom    3 type  1   force =    -0.00465266   -0.00005012   -0.01904263
     atom    4 type  2   force =    -0.00286757   -0.01603242    0.00945036
     atom    5 type  1   force =    -0.00201540    0.01582223   -0.00610699
     atom    6 type  2   force =     0.00195105   -0.01001846   -0.00385934
     atom    7 type  1   force =     0.00082182    0.01330253   -0.01075309
     atom    8 type  2   force =     0.01619404    0.00483909   -0.00814238
     atom    9 type  1   force =    -0.01530534    0.02036756   -0.02636062
     atom   10 type  2   force =    -0.00592375    0.01966818   -0.00734090
     atom   11 type  1   force =     0.00730795    0.02426512   -0.00997956
     atom   12 type  2   force =    -0.00769653    0.01716827    0.00015076

     Total force =     0.078909     Total SCF correction =     0.000466

     Entering Dynamics:    iteration =     7
                           time      =   0.0068 pico-seconds


ATOMIC_POSITIONS (angstrom)
C        6.571823496   5.490102668   4.763213752
H        7.572040266   5.656421725   4.352886365
C        5.885175554   6.563933839   5.346930826
H        6.328274181   7.566645605   5.334532313
C        4.604282196   6.349240969   5.876107440
H        4.067233203   7.207183582   6.300998061
C        4.032465564   5.073042133   5.877830352
H        3.055130741   4.913218466   6.353801558
C        4.702577316   4.021842602   5.253283488
H        4.266788229   3.015380495   5.219718850
C        5.954266375   4.242856476   4.660195195
H        6.478266343   3.417859415   4.164962752


     kinetic energy (Ekin) =     0.00572253 Ry
     temperature           =    54.75851721 K 
     Ekin + Etot (const)   =   -75.61154010 Ry
     Message from routine dynamics:
     Total linear momentum <> 0

     Linear momentum :   -0.2176179185   -0.2067933862   -0.0745982040
 ****** END OF FORCE_ESF COMPUTATION ******
     Check: negative starting charge=   -0.001496
     NEW-OLD atomic charge density approx. for the potential
     Check: negative starting charge=   -0.001498

     negative rho (up, down):  0.919E-02 0.000E+00
 ****** END OF ADD_ESF COMPUTATION ******

     total cpu time spent up to now is      802.6 secs

     per-process dynamical memory:    19.8 Mb

     Self-consistent Calculation

     iteration #  1     ecut=    25.00 Ry     beta=0.70
     Davidson diagonalization with overlap
     ethr =  1.00E-06,  avg # of iterations =  4.0

     negative rho (up, down):  0.918E-02 0.000E+00

     total cpu time spent up to now is      803.2 secs

     total energy              =     -75.65120002 Ry
     Harris-Foulkes estimate   =     -75.65126207 Ry
     estimated scf accuracy    <       0.00015011 Ry

     iteration #  2     ecut=    25.00 Ry     beta=0.70
     Davidson diagonalization with overlap
     ethr =  5.00E-07,  avg # of iterations =  4.0

     negative rho (up, down):  0.918E-02 0.000E+00

     total cpu time spent up to now is      803.9 secs

     total energy              =     -75.65120959 Ry
     Harris-Foulkes estimate   =     -75.65125983 Ry
     estimated scf accuracy    <       0.00009352 Ry

     iteration #  3     ecut=    25.00 Ry     beta=0.70
     Davidson diagonalization with overlap
     ethr =  3.12E-07,  avg # of iterations =  3.0

     negative rho (up, down):  0.918E-02 0.000E+00

     total cpu time spent up to now is      804.5 secs

     total energy              =     -75.65123466 Ry
     Harris-Foulkes estimate   =     -75.65124086 Ry
     estimated scf accuracy    <       0.00001544 Ry

     iteration #  4     ecut=    25.00 Ry     beta=0.70
     Davidson diagonalization with overlap
     ethr =  5.15E-08,  avg # of iterations =  4.0

     negative rho (up, down):  0.918E-02 0.000E+00

     total cpu time spent up to now is      805.1 secs

     total energy              =     -75.65123764 Ry
     Harris-Foulkes estimate   =     -75.65123821 Ry
     estimated scf accuracy    <       0.00000121 Ry

     iteration #  5     ecut=    25.00 Ry     beta=0.70
     Davidson diagonalization with overlap
     ethr =  4.03E-09,  avg # of iterations =  3.0

     negative rho (up, down):  0.918E-02 0.000E+00

     total cpu time spent up to now is      805.6 secs

     End of self-consistent calculation

          k = 0.0000 0.0000 0.0000 (  8440 PWs)   bands (ev):

   -20.7649 -18.0092 -17.9310 -14.3467 -14.3199 -12.3595 -10.6669 -10.4363
    -9.7710  -9.6525  -8.6505  -7.7745  -7.6932  -5.9521  -5.8756

!    total energy              =     -75.65123794 Ry
     Harris-Foulkes estimate   =     -75.65123799 Ry
     estimated scf accuracy    <       0.00000008 Ry

     convergence has been achieved in   5 iterations

     Forces acting on atoms (Ry/au):

     atom    1 type  1   force =    -0.00109268    0.03083198   -0.02426987
     atom    2 type  2   force =     0.00615688    0.00186232   -0.00952065
     atom    3 type  1   force =    -0.00111713   -0.00997064   -0.01989553
     atom    4 type  2   force =    -0.00320851   -0.01417344    0.00822160
     atom    5 type  1   force =     0.00785742    0.01874059   -0.00891522
     atom    6 type  2   force =    -0.00166125   -0.00921120   -0.00221353
     atom    7 type  1   force =    -0.00349231    0.01556222   -0.01001078
     atom    8 type  2   force =     0.01335264    0.00084211   -0.00629098
     atom    9 type  1   force =    -0.00965253    0.02170903   -0.02674579
     atom   10 type  2   force =    -0.00869520    0.01745207   -0.00701285
     atom   11 type  1   force =     0.00265922    0.02702343   -0.00926834
     atom   12 type  2   force =    -0.00666429    0.01460979   -0.00065371

     Total force =     0.079981     Total SCF correction =     0.000422

     Entering Dynamics:    iteration =     8
                           time      =   0.0077 pico-seconds


ATOMIC_POSITIONS (angstrom)
C        6.570751013   5.487239591   4.759784881
H        7.568444754   5.652902634   4.346397444
C        5.880810224   6.565039331   5.346508943
H        6.331144972   7.561813857   5.349572535
C        4.599998465   6.348135597   5.877678765
H        4.073526888   7.206378810   6.305699871
C        4.033420454   5.072087918   5.876561796
H        3.055310748   4.930159369   6.345676380
C        4.700191768   4.020259455   5.252073000
H        4.273049266   3.014757422   5.220022924
C        5.955198564   4.239518172   4.661170899
H        6.476610674   3.418419232   4.164539578


     kinetic energy (Ekin) =     0.00636164 Ry
     temperature           =    60.87405028 K 
     Ekin + Etot (const)   =   -75.64487631 Ry
     Message from routine dynamics:
     Total linear momentum <> 0

     Linear momentum :   -0.2417902839   -0.2091981871   -0.0869417556
 ****** END OF FORCE_ESF COMPUTATION ******
     Check: negative starting charge=   -0.001498
     NEW-OLD atomic charge density approx. for the potential
     Check: negative starting charge=   -0.001499

     negative rho (up, down):  0.921E-02 0.000E+00
 ****** END OF ADD_ESF COMPUTATION ******

     total cpu time spent up to now is      914.3 secs

     per-process dynamical memory:    19.8 Mb

     Self-consistent Calculation

     iteration #  1     ecut=    25.00 Ry     beta=0.70
     Davidson diagonalization with overlap
     ethr =  1.00E-06,  avg # of iterations =  4.0

     negative rho (up, down):  0.920E-02 0.000E+00

     total cpu time spent up to now is      915.0 secs

     total energy              =     -75.68479456 Ry
     Harris-Foulkes estimate   =     -75.68490906 Ry
     estimated scf accuracy    <       0.00022526 Ry

     iteration #  2     ecut=    25.00 Ry     beta=0.70
     Davidson diagonalization with overlap
     ethr =  7.51E-07,  avg # of iterations =  4.0

     negative rho (up, down):  0.920E-02 0.000E+00

     total cpu time spent up to now is      915.6 secs

     total energy              =     -75.68480793 Ry
     Harris-Foulkes estimate   =     -75.68491202 Ry
     estimated scf accuracy    <       0.00020287 Ry

     iteration #  3     ecut=    25.00 Ry     beta=0.70
     Davidson diagonalization with overlap
     ethr =  6.76E-07,  avg # of iterations =  3.0

     negative rho (up, down):  0.919E-02 0.000E+00

     total cpu time spent up to now is      916.2 secs

     total energy              =     -75.68485963 Ry
     Harris-Foulkes estimate   =     -75.68486638 Ry
     estimated scf accuracy    <       0.00001770 Ry

     iteration #  4     ecut=    25.00 Ry     beta=0.70
     Davidson diagonalization with overlap
     ethr =  5.90E-08,  avg # of iterations =  4.0

     negative rho (up, down):  0.919E-02 0.000E+00

     total cpu time spent up to now is      916.7 secs

     End of self-consistent calculation

          k = 0.0000 0.0000 0.0000 (  8440 PWs)   bands (ev):

   -20.7700 -18.0204 -17.9520 -14.3803 -14.3348 -12.3852 -10.7089 -10.4461
    -9.7864  -9.6839  -8.6568  -7.7954  -7.7171  -5.9645  -5.8896

!    total energy              =     -75.68486282 Ry
     Harris-Foulkes estimate   =     -75.68486342 Ry
     estimated scf accuracy    <       0.00000092 Ry

     convergence has been achieved in   4 iterations

     Forces acting on atoms (Ry/au):

     atom    1 type  1   force =    -0.00963413    0.03620112   -0.02111956
     atom    2 type  2   force =     0.00670040    0.00243979   -0.00976342
     atom    3 type  1   force =    -0.00047377   -0.02131755   -0.02181318
     atom    4 type  2   force =    -0.00327977   -0.01126908    0.00657557
     atom    5 type  1   force =     0.01556308    0.01777665   -0.01373242
     atom    6 type  2   force =    -0.00626277   -0.00729234   -0.00036091
     atom    7 type  1   force =    -0.00763755    0.01644502   -0.01197354
     atom    8 type  2   force =     0.00792397   -0.00379479   -0.00371556
     atom    9 type  1   force =    -0.00636596    0.02408170   -0.02775823
     atom   10 type  2   force =    -0.01284269    0.01287458   -0.00702772
     atom   11 type  1   force =    -0.00522087    0.03041643   -0.00909188
     atom   12 type  2   force =    -0.00549222    0.01083162   -0.00232341

     Total force =     0.086420     Total SCF correction =     0.001646

     Entering Dynamics:    iteration =     9
                           time      =   0.0087 pico-seconds


ATOMIC_POSITIONS (angstrom)
C        6.569385165   5.484935293   4.756211487
H        7.564607236   5.649518218   4.339747165
C        5.876464533   6.565938416   5.345867623
H        6.333513112   7.556408209   5.365072945
C        4.596062122   6.347536934   5.879209785
H        4.078884799   7.204475840   6.311219958
C        4.034152032   5.071349677   5.875219837
H        3.055518581   4.946132862   6.336595471
C        4.698026377   4.018596139   5.250605258
H        4.278662039   3.014405745   5.220710616
C        5.956207639   4.236056497   4.662211832
H        6.474789646   3.418669806   4.164394053


     kinetic energy (Ekin) =     0.00646613 Ry
     temperature           =    61.87397295 K 
     Ekin + Etot (const)   =   -75.67839668 Ry
     Message from routine dynamics:
     Total linear momentum <> 0

     Linear momentum :   -0.2433312356   -0.1921814017   -0.1024728406
 ****** END OF FORCE_ESF COMPUTATION ******
     Check: negative starting charge=   -0.001499
     NEW-OLD atomic charge density approx. for the potential
     Check: negative starting charge=   -0.001500

     negative rho (up, down):  0.922E-02 0.000E+00
 ****** END OF ADD_ESF COMPUTATION ******

     total cpu time spent up to now is     1025.4 secs

     per-process dynamical memory:    19.8 Mb

     Self-consistent Calculation

     iteration #  1     ecut=    25.00 Ry     beta=0.70
     Davidson diagonalization with overlap
     ethr =  1.00E-06,  avg # of iterations =  4.0

     negative rho (up, down):  0.921E-02 0.000E+00

     total cpu time spent up to now is     1026.1 secs

     total energy              =     -75.71611570 Ry
     Harris-Foulkes estimate   =     -75.71620902 Ry
     estimated scf accuracy    <       0.00020028 Ry

     iteration #  2     ecut=    25.00 Ry     beta=0.70
     Davidson diagonalization with overlap
     ethr =  6.68E-07,  avg # of iterations =  4.0

     negative rho (up, down):  0.921E-02 0.000E+00

     total cpu time spent up to now is     1026.7 secs

     total energy              =     -75.71612468 Ry
     Harris-Foulkes estimate   =     -75.71620845 Ry
     estimated scf accuracy    <       0.00015939 Ry

     iteration #  3     ecut=    25.00 Ry     beta=0.70
     Davidson diagonalization with overlap
     ethr =  5.31E-07,  avg # of iterations =  3.0

     negative rho (up, down):  0.920E-02 0.000E+00

     total cpu time spent up to now is     1027.3 secs

     total energy              =     -75.71616710 Ry
     Harris-Foulkes estimate   =     -75.71617472 Ry
     estimated scf accuracy    <       0.00001987 Ry

     iteration #  4     ecut=    25.00 Ry     beta=0.70
     Davidson diagonalization with overlap
     ethr =  6.62E-08,  avg # of iterations =  4.0

     negative rho (up, down):  0.920E-02 0.000E+00

     total cpu time spent up to now is     1027.8 secs

     End of self-consistent calculation

          k = 0.0000 0.0000 0.0000 (  8440 PWs)   bands (ev):

   -20.7745 -18.0354 -17.9675 -14.4162 -14.3461 -12.4100 -10.7511 -10.4549
    -9.7998  -9.7143  -8.6633  -7.8158  -7.7371  -5.9766  -5.9019

!    total energy              =     -75.71617083 Ry
     Harris-Foulkes estimate   =     -75.71617102 Ry
     estimated scf accuracy    <       0.00000042 Ry

     convergence has been achieved in   4 iterations

     Forces acting on atoms (Ry/au):

     atom    1 type  1   force =    -0.01731684    0.04104756   -0.01856420
     atom    2 type  2   force =     0.00723852    0.00326733   -0.00997263
     atom    3 type  1   force =    -0.00017871   -0.03013930   -0.02347025
     atom    4 type  2   force =    -0.00312031   -0.00785921    0.00491439
     atom    5 type  1   force =     0.02211347    0.01689212   -0.01868919
     atom    6 type  2   force =    -0.01068352   -0.00433474    0.00146318
     atom    7 type  1   force =    -0.01004007    0.01899389   -0.01505332
     atom    8 type  2   force =     0.00209367   -0.00766451   -0.00098893
     atom    9 type  1   force =    -0.00304959    0.02869404   -0.02853471
     atom   10 type  2   force =    -0.01651356    0.00870081   -0.00721929
     atom   11 type  1   force =    -0.01244878    0.03547545   -0.00899601
     atom   12 type  2   force =    -0.00394508    0.00718086   -0.00414986

     Total force =     0.098407     Total SCF correction =     0.001129

     Entering Dynamics:    iteration =    10
                           time      =   0.0097 pico-seconds


ATOMIC_POSITIONS (angstrom)
C        6.567768370   5.483385477   4.752540131
H        7.561154846   5.646590319   4.333040141
C        5.872337368   6.566552052   5.344958971
H        6.335739729   7.551435659   5.380604889
C        4.592805770   6.347537219   5.880577335
H        4.082583505   7.202464737   6.318047665
C        4.034810272   5.070990719   5.873718568
H        3.054671039   4.960367772   6.327296014
C        4.696353831   4.017057154   5.248843121
H        4.283119442   3.013465705   5.221768596
C        5.957350628   4.232675345   4.663302263
H        6.473660143   3.417860246   4.164141078


     kinetic energy (Ekin) =     0.00602595 Ry
     temperature           =    57.66188144 K 
     Ekin + Etot (const)   =   -75.71014488 Ry
     Message from routine dynamics:
     Total linear momentum <> 0

     Linear momentum :   -0.2186461744   -0.1551168065   -0.1237177230
 ****** END OF FORCE_ESF COMPUTATION ******
     Check: negative starting charge=   -0.001500
     NEW-OLD atomic charge density approx. for the potential
     Check: negative starting charge=   -0.001499

     negative rho (up, down):  0.921E-02 0.000E+00
 ****** END OF ADD_ESF COMPUTATION ******

     total cpu time spent up to now is     1136.6 secs

     per-process dynamical memory:    19.8 Mb

     Self-consistent Calculation

     iteration #  1     ecut=    25.00 Ry     beta=0.70
     Davidson diagonalization with overlap
     ethr =  1.00E-06,  avg # of iterations =  4.0

     negative rho (up, down):  0.921E-02 0.000E+00

     total cpu time spent up to now is     1137.3 secs

     total energy              =     -75.74567225 Ry
     Harris-Foulkes estimate   =     -75.74572502 Ry
     estimated scf accuracy    <       0.00014150 Ry

     iteration #  2     ecut=    25.00 Ry     beta=0.70
     Davidson diagonalization with overlap
     ethr =  4.72E-07,  avg # of iterations =  3.0

     negative rho (up, down):  0.920E-02 0.000E+00

     total cpu time spent up to now is     1137.9 secs

     total energy              =     -75.74567837 Ry
     Harris-Foulkes estimate   =     -75.74572130 Ry
     estimated scf accuracy    <       0.00007780 Ry

     iteration #  3     ecut=    25.00 Ry     beta=0.70
     Davidson diagonalization with overlap
     ethr =  2.59E-07,  avg # of iterations =  4.0

     negative rho (up, down):  0.920E-02 0.000E+00

     total cpu time spent up to now is     1138.5 secs

     total energy              =     -75.74570007 Ry
     Harris-Foulkes estimate   =     -75.74570783 Ry
     estimated scf accuracy    <       0.00001934 Ry

     iteration #  4     ecut=    25.00 Ry     beta=0.70
     Davidson diagonalization with overlap
     ethr =  6.45E-08,  avg # of iterations =  3.0

     negative rho (up, down):  0.920E-02 0.000E+00

     total cpu time spent up to now is     1139.0 secs

     End of self-consistent calculation

          k = 0.0000 0.0000 0.0000 (  8440 PWs)   bands (ev):

   -20.7798 -18.0535 -17.9769 -14.4474 -14.3551 -12.4298 -10.7852 -10.4642
    -9.8112  -9.7388  -8.6711  -7.8331  -7.7533  -5.9896  -5.9129

!    total energy              =     -75.74570366 Ry
     Harris-Foulkes estimate   =     -75.74570393 Ry
     estimated scf accuracy    <       0.00000046 Ry

     convergence has been achieved in   4 iterations

     Forces acting on atoms (Ry/au):

     atom    1 type  1   force =    -0.02247190    0.04380979   -0.01672029
     atom    2 type  2   force =     0.00744726    0.00400313   -0.00994861
     atom    3 type  1   force =     0.00127583   -0.03627191   -0.02440170
     atom    4 type  2   force =    -0.00288896   -0.00528694    0.00329979
     atom    5 type  1   force =     0.02699832    0.01561661   -0.02218645
     atom    6 type  2   force =    -0.01374284   -0.00207586    0.00266513
     atom    7 type  1   force =    -0.01173809    0.02120910   -0.01742518
     atom    8 type  2   force =    -0.00208171   -0.01077231    0.00120313
     atom    9 type  1   force =    -0.00004732    0.03237929   -0.02826864
     atom   10 type  2   force =    -0.01895694    0.00598877   -0.00738542
     atom   11 type  1   force =    -0.01699735    0.03982697   -0.00942298
     atom   12 type  2   force =    -0.00262435    0.00472646   -0.00530054

     Total force =     0.108771     Total SCF correction =     0.001250

     Entering Dynamics:    iteration =    11
                           time      =   0.0106 pico-seconds


ATOMIC_POSITIONS (angstrom)
C        6.565975205   5.482763652   4.748789664
H        7.558518325   5.644395411   4.326365021
C        5.868648741   6.566860718   5.343734034
H        6.338176637   7.547581981   5.395668714
C        4.590520831   6.348199554   5.881677690
H        4.084183946   7.200925661   6.326471025
C        4.035530612   5.071135784   5.871983449
H        3.051920938   4.971979120   6.318374857
C        4.695391534   4.015810874   5.246770737
H        4.285949374   3.011220906   5.223194374
C        5.958695597   4.229574678   4.664410340
H        6.473780501   3.415452530   4.163531351


     kinetic energy (Ekin) =     0.00529646 Ry
     temperature           =    50.68144009 K 
     Ekin + Etot (const)   =   -75.74040721 Ry
     Message from routine dynamics:
     Total linear momentum <> 0

     Linear momentum :   -0.1688307606   -0.1009850438   -0.1511018656
 ****** END OF FORCE_ESF COMPUTATION ******
     Check: negative starting charge=   -0.001499
     NEW-OLD atomic charge density approx. for the potential
     Check: negative starting charge=   -0.001497

     negative rho (up, down):  0.919E-02 0.000E+00
 ****** END OF ADD_ESF COMPUTATION ******

     total cpu time spent up to now is     1247.7 secs

     per-process dynamical memory:    19.8 Mb

     Self-consistent Calculation

     iteration #  1     ecut=    25.00 Ry     beta=0.70
     Davidson diagonalization with overlap
     ethr =  1.00E-06,  avg # of iterations =  4.0

     negative rho (up, down):  0.919E-02 0.000E+00

     total cpu time spent up to now is     1248.4 secs

     total energy              =     -75.77234968 Ry
     Harris-Foulkes estimate   =     -75.77237682 Ry
     estimated scf accuracy    <       0.00009917 Ry

     iteration #  2     ecut=    25.00 Ry     beta=0.70
     Davidson diagonalization with overlap
     ethr =  3.31E-07,  avg # of iterations =  3.0

     negative rho (up, down):  0.919E-02 0.000E+00

     total cpu time spent up to now is     1249.0 secs

     total energy              =     -75.77235400 Ry
     Harris-Foulkes estimate   =     -75.77237261 Ry
     estimated scf accuracy    <       0.00003284 Ry

     iteration #  3     ecut=    25.00 Ry     beta=0.70
     Davidson diagonalization with overlap
     ethr =  1.09E-07,  avg # of iterations =  4.0

     negative rho (up, down):  0.919E-02 0.000E+00

     total cpu time spent up to now is     1249.6 secs

     total energy              =     -75.77236270 Ry
     Harris-Foulkes estimate   =     -75.77237025 Ry
     estimated scf accuracy    <       0.00001798 Ry

     iteration #  4     ecut=    25.00 Ry     beta=0.70
     Davidson diagonalization with overlap
     ethr =  5.99E-08,  avg # of iterations =  3.0

     negative rho (up, down):  0.919E-02 0.000E+00

     total cpu time spent up to now is     1250.1 secs

     End of self-consistent calculation

          k = 0.0000 0.0000 0.0000 (  8440 PWs)   bands (ev):

   -20.7860 -18.0686 -17.9827 -14.4692 -14.3593 -12.4406 -10.8039 -10.4738
    -9.8188  -9.7538  -8.6803  -7.8450  -7.7642  -6.0013  -5.9245

!    total energy              =     -75.77236615 Ry
     Harris-Foulkes estimate   =     -75.77236637 Ry
     estimated scf accuracy    <       0.00000036 Ry

     convergence has been achieved in   4 iterations

     Forces acting on atoms (Ry/au):

     atom    1 type  1   force =    -0.02485139    0.04506530   -0.01572944
     atom    2 type  2   force =     0.00702170    0.00477419   -0.00953989
     atom    3 type  1   force =     0.00447896   -0.03854597   -0.02468888
     atom    4 type  2   force =    -0.00286268   -0.00430867    0.00168908
     atom    5 type  1   force =     0.02944893    0.01466337   -0.02389213
     atom    6 type  2   force =    -0.01465399   -0.00160601    0.00257231
     atom    7 type  1   force =    -0.01426659    0.02230529   -0.01901316
     atom    8 type  2   force =    -0.00308594   -0.01300607    0.00204766
     atom    9 type  1   force =     0.00117634    0.03366654   -0.02735422
     atom   10 type  2   force =    -0.01986379    0.00595485   -0.00761645
     atom   11 type  1   force =    -0.01912562    0.04262617   -0.01099300
     atom   12 type  2   force =    -0.00233440    0.00439915   -0.00525567

     Total force =     0.114252     Total SCF correction =     0.001170

     Entering Dynamics:    iteration =    12
                           time      =   0.0116 pico-seconds


ATOMIC_POSITIONS (angstrom)
C        6.564079804   5.483169007   4.744983277
H        7.556799930   5.643216269   4.319923676
C        5.865598422   6.566884844   5.342177105
H        6.340973430   7.545147049   5.409770589
C        4.589396975   6.349558359   5.882456745
H        4.083659794   7.200021527   6.336429170
C        4.036383811   5.071852664   5.869962280
H        3.047106984   4.980343267   6.310027630
C        4.695269942   4.014938919   5.244392350
H        4.286947281   3.007641332   5.224912026
C        5.960305858   4.226882074   4.665495699
H        6.475301907   3.411447461   4.162603097


     kinetic energy (Ekin) =     0.00468631 Ry
     temperature           =    44.84297306 K 
     Ekin + Etot (const)   =   -75.76767984 Ry
     Message from routine dynamics:
     Total linear momentum <> 0

     Linear momentum :   -0.1001651970   -0.0355067023   -0.1823982663
 ****** END OF FORCE_ESF COMPUTATION ******
     Check: negative starting charge=   -0.001497
     NEW-OLD atomic charge density approx. for the potential
     Check: negative starting charge=   -0.001495

     negative rho (up, down):  0.916E-02 0.000E+00
 ****** END OF ADD_ESF COMPUTATION ******

     total cpu time spent up to now is     1358.8 secs

     per-process dynamical memory:    19.8 Mb

     Self-consistent Calculation

     iteration #  1     ecut=    25.00 Ry     beta=0.70
     Davidson diagonalization with overlap
     ethr =  1.00E-06,  avg # of iterations =  4.0

     negative rho (up, down):  0.916E-02 0.000E+00

     total cpu time spent up to now is     1359.4 secs

     total energy              =     -75.79454956 Ry
     Harris-Foulkes estimate   =     -75.79457610 Ry
     estimated scf accuracy    <       0.00009417 Ry

     iteration #  2     ecut=    25.00 Ry     beta=0.70
     Davidson diagonalization with overlap
     ethr =  3.14E-07,  avg # of iterations =  3.0

     negative rho (up, down):  0.917E-02 0.000E+00

     total cpu time spent up to now is     1360.0 secs

     total energy              =     -75.79455584 Ry
     Harris-Foulkes estimate   =     -75.79456857 Ry
     estimated scf accuracy    <       0.00002272 Ry

     iteration #  3     ecut=    25.00 Ry     beta=0.70
     Davidson diagonalization with overlap
     ethr =  7.57E-08,  avg # of iterations =  4.0

     negative rho (up, down):  0.917E-02 0.000E+00

     total cpu time spent up to now is     1360.7 secs

     total energy              =     -75.79456116 Ry
     Harris-Foulkes estimate   =     -75.79456793 Ry
     estimated scf accuracy    <       0.00001544 Ry

     iteration #  4     ecut=    25.00 Ry     beta=0.70
     Davidson diagonalization with overlap
     ethr =  5.15E-08,  avg # of iterations =  3.0

     negative rho (up, down):  0.917E-02 0.000E+00

     total cpu time spent up to now is     1361.1 secs

     End of self-consistent calculation

          k = 0.0000 0.0000 0.0000 (  8440 PWs)   bands (ev):

   -20.7929 -18.0786 -17.9855 -14.4797 -14.3585 -12.4414 -10.8051 -10.4830
    -9.8226  -9.7584  -8.6905  -7.8507  -7.7696  -6.0109  -5.9365

!    total energy              =     -75.79456420 Ry
     Harris-Foulkes estimate   =     -75.79456460 Ry
     estimated scf accuracy    <       0.00000057 Ry

     convergence has been achieved in   4 iterations

     Forces acting on atoms (Ry/au):

     atom    1 type  1   force =    -0.02533586    0.04457857   -0.01567987
     atom    2 type  2   force =     0.00568102    0.00543812   -0.00875525
     atom    3 type  1   force =     0.00818113   -0.03672246   -0.02430087
     atom    4 type  2   force =    -0.00348158   -0.00510592    0.00004242
     atom    5 type  1   force =     0.02799792    0.01456818   -0.02362237
     atom    6 type  2   force =    -0.01358915   -0.00302132    0.00101893
     atom    7 type  1   force =    -0.01881195    0.02267631   -0.01964941
     atom    8 type  2   force =    -0.00072886   -0.01412859    0.00145402
     atom    9 type  1   force =    -0.00015267    0.03262873   -0.02574551
     atom   10 type  2   force =    -0.01923156    0.00887643   -0.00790554
     atom   11 type  1   force =    -0.01930360    0.04376797   -0.01379896
     atom   12 type  2   force =    -0.00326239    0.00633797   -0.00393246

     Total force =     0.114222     Total SCF correction =     0.001458

     Entering Dynamics:    iteration =    13
                           time      =   0.0126 pico-seconds


ATOMIC_POSITIONS (angstrom)
C        6.562130292   5.484600348   4.741138121
H        7.555760341   5.643170062   4.313976053
C        5.863315047   6.566675162   5.340307557
H        6.343934828   7.543900658   5.422419505
C        4.589461876   6.351628122   5.882930490
H        4.081307724   7.199430053   6.347548718
C        4.037332971   5.073162673   5.867654124
H        3.040815456   4.985156056   6.302152453
C        4.696018068   4.014433890   5.241752809
H        4.286297859   3.003432881   5.226881388
C        5.962237836   4.224633994   4.666508509
H        6.478068470   3.406324514   4.161706439


     kinetic energy (Ekin) =     0.00444613 Ry
     temperature           =    42.54470484 K 
     Ekin + Etot (const)   =   -75.79011807 Ry
     Message from routine dynamics:
     Total linear momentum <> 0

     Linear momentum :   -0.0239228395    0.0338974227   -0.2133498985
 ****** END OF FORCE_ESF COMPUTATION ******
     Check: negative starting charge=   -0.001495
     NEW-OLD atomic charge density approx. for the potential
     Check: negative starting charge=   -0.001492

     negative rho (up, down):  0.913E-02 0.000E+00
 ****** END OF ADD_ESF COMPUTATION ******

     total cpu time spent up to now is     1469.8 secs

     per-process dynamical memory:    19.8 Mb

     Self-consistent Calculation

     iteration #  1     ecut=    25.00 Ry     beta=0.70
     Davidson diagonalization with overlap
     ethr =  1.00E-06,  avg # of iterations =  4.0

     negative rho (up, down):  0.913E-02 0.000E+00

     total cpu time spent up to now is     1470.5 secs

     total energy              =     -75.81109423 Ry
     Harris-Foulkes estimate   =     -75.81115235 Ry
     estimated scf accuracy    <       0.00013470 Ry

     iteration #  2     ecut=    25.00 Ry     beta=0.70
     Davidson diagonalization with overlap
     ethr =  4.49E-07,  avg # of iterations =  3.0

     negative rho (up, down):  0.914E-02 0.000E+00

     total cpu time spent up to now is     1471.1 secs

     total energy              =     -75.81110013 Ry
     Harris-Foulkes estimate   =     -75.81114204 Ry
     estimated scf accuracy    <       0.00007430 Ry

     iteration #  3     ecut=    25.00 Ry     beta=0.70
     Davidson diagonalization with overlap
     ethr =  2.48E-07,  avg # of iterations =  4.0

     negative rho (up, down):  0.914E-02 0.000E+00

     total cpu time spent up to now is     1471.7 secs

     total energy              =     -75.81112096 Ry
     Harris-Foulkes estimate   =     -75.81112921 Ry
     estimated scf accuracy    <       0.00002007 Ry

     iteration #  4     ecut=    25.00 Ry     beta=0.70
     Davidson diagonalization with overlap
     ethr =  6.69E-08,  avg # of iterations =  3.0

     negative rho (up, down):  0.914E-02 0.000E+00

     total cpu time spent up to now is     1472.2 secs

     End of self-consistent calculation

          k = 0.0000 0.0000 0.0000 (  8440 PWs)   bands (ev):

   -20.7991 -18.0832 -17.9859 -14.4795 -14.3542 -12.4337 -10.7921 -10.4904
    -9.8238  -9.7535  -8.6999  -7.8528  -7.7684  -6.0177  -5.9480

!    total energy              =     -75.81112469 Ry
     Harris-Foulkes estimate   =     -75.81112494 Ry
     estimated scf accuracy    <       0.00000046 Ry

     convergence has been achieved in   4 iterations

     Forces acting on atoms (Ry/au):

     atom    1 type  1   force =    -0.02106631    0.04185919   -0.01616648
     atom    2 type  2   force =     0.00475230    0.00589883   -0.00784263
     atom    3 type  1   force =     0.01518102   -0.03187799   -0.02314229
     atom    4 type  2   force =    -0.00382184   -0.00723057   -0.00160804
     atom    5 type  1   force =     0.02635547    0.01443657   -0.02162286
     atom    6 type  2   force =    -0.01016488   -0.00580618   -0.00177178
     atom    7 type  1   force =    -0.02110326    0.02244567   -0.01962987
     atom    8 type  2   force =     0.00505905   -0.01414905   -0.00021442
     atom    9 type  1   force =     0.00012469    0.02990351   -0.02351100
     atom   10 type  2   force =    -0.01657640    0.01379861   -0.00832219
     atom   11 type  1   force =    -0.01457197    0.04339405   -0.01722565
     atom   12 type  2   force =    -0.00415446    0.00971290   -0.00178731

     Total force =     0.109487     Total SCF correction =     0.001216

     Entering Dynamics:    iteration =    14
                           time      =   0.0135 pico-seconds


ATOMIC_POSITIONS (angstrom)
C        6.560115304   5.486975525   4.737284961
H        7.555112723   5.644300301   4.308816314
C        5.861842039   6.566308067   5.338188868
H        6.346825345   7.543237291   5.433141751
C        4.590584617   6.354381867   5.883181329
H        4.077911800   7.198412269   6.359184575
C        4.038228307   5.075030353   5.865100039
H        3.034369003   4.986316683   6.294400166
C        4.697533385   4.014210061   5.238935093
H        4.284537793   2.999748914   5.229044231
C        5.964486182   4.222798302   4.667410354
H        6.481760759   3.400898891   4.161415298


     kinetic energy (Ekin) =     0.00451210 Ry
     temperature           =    43.17598466 K 
     Ekin + Etot (const)   =   -75.80661259 Ry
     Message from routine dynamics:
     Total linear momentum <> 0

     Linear momentum :    0.0470107422    0.0997207566   -0.2389483155
 ****** END OF FORCE_ESF COMPUTATION ******
     Check: negative starting charge=   -0.001492
     NEW-OLD atomic charge density approx. for the potential
     Check: negative starting charge=   -0.001489

     negative rho (up, down):  0.909E-02 0.000E+00
 ****** END OF ADD_ESF COMPUTATION ******

     total cpu time spent up to now is     1580.9 secs

     per-process dynamical memory:    19.8 Mb

     Self-consistent Calculation

     iteration #  1     ecut=    25.00 Ry     beta=0.70
     Davidson diagonalization with overlap
     ethr =  1.00E-06,  avg # of iterations =  4.0

     negative rho (up, down):  0.910E-02 0.000E+00

     total cpu time spent up to now is     1581.6 secs

     total energy              =     -75.82318463 Ry
     Harris-Foulkes estimate   =     -75.82322635 Ry
     estimated scf accuracy    <       0.00011209 Ry

     iteration #  2     ecut=    25.00 Ry     beta=0.70
     Davidson diagonalization with overlap
     ethr =  3.74E-07,  avg # of iterations =  3.0

     negative rho (up, down):  0.911E-02 0.000E+00

     total cpu time spent up to now is     1582.2 secs

     total energy              =     -75.82319271 Ry
     Harris-Foulkes estimate   =     -75.82321312 Ry
     estimated scf accuracy    <       0.00003479 Ry

     iteration #  3     ecut=    25.00 Ry     beta=0.70
     Davidson diagonalization with overlap
     ethr =  1.16E-07,  avg # of iterations =  4.0

     negative rho (up, down):  0.911E-02 0.000E+00

     total cpu time spent up to now is     1582.8 secs

     total energy              =     -75.82320186 Ry
     Harris-Foulkes estimate   =     -75.82320943 Ry
     estimated scf accuracy    <       0.00001735 Ry

     iteration #  4     ecut=    25.00 Ry     beta=0.70
     Davidson diagonalization with overlap
     ethr =  5.78E-08,  avg # of iterations =  3.0

     negative rho (up, down):  0.911E-02 0.000E+00

     total cpu time spent up to now is     1583.3 secs

     End of self-consistent calculation

          k = 0.0000 0.0000 0.0000 (  8440 PWs)   bands (ev):

   -20.8053 -18.0840 -17.9867 -14.4734 -14.3502 -12.4236 -10.7726 -10.4974
    -9.8237  -9.7458  -8.7085  -7.8545  -7.7647  -6.0216  -5.9595

!    total energy              =     -75.82320524 Ry
     Harris-Foulkes estimate   =     -75.82320567 Ry
     estimated scf accuracy    <       0.00000063 Ry

     convergence has been achieved in   4 iterations

     Forces acting on atoms (Ry/au):

     atom    1 type  1   force =    -0.01870102    0.03761348   -0.01729077
     atom    2 type  2   force =     0.00295513    0.00630397   -0.00690845
     atom    3 type  1   force =     0.01872238   -0.02490907   -0.02140995
     atom    4 type  2   force =    -0.00478262   -0.00967717   -0.00317655
     atom    5 type  1   force =     0.01926916    0.01307332   -0.01874028
     atom    6 type  2   force =    -0.00668496   -0.00861467   -0.00499100
     atom    7 type  1   force =    -0.02574632    0.02121649   -0.01986932
     atom    8 type  2   force =     0.01080714   -0.01334855   -0.00205292
     atom    9 type  1   force =    -0.00421600    0.02740009   -0.02064247
     atom   10 type  2   force =    -0.01417470    0.01896817   -0.00881252
     atom   11 type  1   force =    -0.01240193    0.04280696   -0.02074381
     atom   12 type  2   force =    -0.00592488    0.01356312    0.00051789

     Total force =     0.105018     Total SCF correction =     0.001453

     Entering Dynamics:    iteration =    15
                           time      =   0.0145 pico-seconds


ATOMIC_POSITIONS (angstrom)
C        6.558012112   5.490149551   4.733468612
H        7.554131746   5.646659557   4.304716153
C        5.861185177   6.565869570   5.335928216
H        6.349062907   7.542471625   5.441499173
C        4.592553306   6.357725964   5.883346912
H        4.074083635   7.196165823   6.370619422
C        4.038895026   5.077356296   5.862373561
H        3.028863480   4.983882527   6.286416563
C        4.699639218   4.014144819   5.236069799
H        4.281891097   2.997793598   5.231357901
C        5.967015807   4.221304448   4.668190812
H        6.485586861   3.396115762   4.162354732


     kinetic energy (Ekin) =     0.00469216 Ry
     temperature           =    44.89896961 K 
     Ekin + Etot (const)   =   -75.81851308 Ry
     Message from routine dynamics:
     Total linear momentum <> 0

     Linear momentum :    0.1016677095    0.1557076014   -0.2534712609
 ****** END OF FORCE_ESF COMPUTATION ******
     Check: negative starting charge=   -0.001489
     NEW-OLD atomic charge density approx. for the potential
     Check: negative starting charge=   -0.001487

     negative rho (up, down):  0.908E-02 0.000E+00
 ****** END OF ADD_ESF COMPUTATION ******

     total cpu time spent up to now is     1692.0 secs

     per-process dynamical memory:    19.8 Mb

     Self-consistent Calculation

     iteration #  1     ecut=    25.00 Ry     beta=0.70
     Davidson diagonalization with overlap
     ethr =  1.00E-06,  avg # of iterations =  4.0

     negative rho (up, down):  0.908E-02 0.000E+00

     total cpu time spent up to now is     1692.6 secs

     total energy              =     -75.82960318 Ry
     Harris-Foulkes estimate   =     -75.82964704 Ry
     estimated scf accuracy    <       0.00010784 Ry

     iteration #  2     ecut=    25.00 Ry     beta=0.70
     Davidson diagonalization with overlap
     ethr =  3.59E-07,  avg # of iterations =  3.0

     negative rho (up, down):  0.909E-02 0.000E+00

     total cpu time spent up to now is     1693.2 secs

     total energy              =     -75.82960906 Ry
     Harris-Foulkes estimate   =     -75.82963873 Ry
     estimated scf accuracy    <       0.00005231 Ry

     iteration #  3     ecut=    25.00 Ry     beta=0.70
     Davidson diagonalization with overlap
     ethr =  1.74E-07,  avg # of iterations =  4.0

     negative rho (up, down):  0.909E-02 0.000E+00

     total cpu time spent up to now is     1693.9 secs

     total energy              =     -75.82962362 Ry
     Harris-Foulkes estimate   =     -75.82963014 Ry
     estimated scf accuracy    <       0.00001560 Ry

     iteration #  4     ecut=    25.00 Ry     beta=0.70
     Davidson diagonalization with overlap
     ethr =  5.20E-08,  avg # of iterations =  3.0

     negative rho (up, down):  0.909E-02 0.000E+00

     total cpu time spent up to now is     1694.3 secs

     End of self-consistent calculation

          k = 0.0000 0.0000 0.0000 (  8440 PWs)   bands (ev):

   -20.8089 -18.0823 -17.9871 -14.4637 -14.3490 -12.4146 -10.7544 -10.5020
    -9.8242  -9.7375  -8.7138  -7.8577  -7.7586  -6.0222  -5.9681

!    total energy              =     -75.82962656 Ry
     Harris-Foulkes estimate   =     -75.82962685 Ry
     estimated scf accuracy    <       0.00000045 Ry

     convergence has been achieved in   4 iterations

     Forces acting on atoms (Ry/au):

     atom    1 type  1   force =    -0.01622127    0.03208744   -0.01849732
     atom    2 type  2   force =     0.00162660    0.00668281   -0.00625922
     atom    3 type  1   force =     0.02068577   -0.01730879   -0.01923639
     atom    4 type  2   force =    -0.00529754   -0.01135495   -0.00449960
     atom    5 type  1   force =     0.01070745    0.00983254   -0.01582450
     atom    6 type  2   force =    -0.00335961   -0.01024252   -0.00794831
     atom    7 type  1   force =    -0.02823996    0.01968382   -0.02095223
     atom    8 type  2   force =     0.01542195   -0.01176270   -0.00336395
     atom    9 type  1   force =    -0.00911461    0.02682721   -0.01736131
     atom   10 type  2   force =    -0.01199804    0.02278168   -0.00939044
     atom   11 type  1   force =    -0.01084148    0.04318931   -0.02336332
     atom   12 type  2   force =    -0.00719544    0.01670085    0.00227638

     Total force =     0.101826     Total SCF correction =     0.001205

     Entering Dynamics:    iteration =    16
                           time      =   0.0155 pico-seconds


ATOMIC_POSITIONS (angstrom)
C        6.555738758   5.493912453   4.729741439
H        7.552493686   5.650194605   4.301879567
C        5.861245366   6.565427255   5.333652488
H        6.350418373   7.541043881   5.447131694
C        4.595056595   6.361509041   5.883575878
H        4.070655675   7.192183722   6.381217149
C        4.039148823   5.080020854   5.859538114
H        3.025461438   4.978145462   6.277984061
C        4.702098784   4.014135500   5.233302352
H        4.278897099   2.998433919   5.233745795
C        5.969727135   4.220070563   4.668866437
H        6.489217875   3.392692876   4.165024205


     kinetic energy (Ekin) =     0.00490759 Ry
     temperature           =    46.96034600 K 
     Ekin + Etot (const)   =   -75.82471897 Ry
     Message from routine dynamics:
     Total linear momentum <> 0

     Linear momentum :    0.1337160192    0.1978753834   -0.2549613043
 ****** END OF FORCE_ESF COMPUTATION ******
     Check: negative starting charge=   -0.001487
     NEW-OLD atomic charge density approx. for the potential
     Check: negative starting charge=   -0.001486

     negative rho (up, down):  0.907E-02 0.000E+00
 ****** END OF ADD_ESF COMPUTATION ******

     total cpu time spent up to now is     1803.1 secs

     per-process dynamical memory:    19.8 Mb

     Self-consistent Calculation

     iteration #  1     ecut=    25.00 Ry     beta=0.70
     Davidson diagonalization with overlap
     ethr =  1.00E-06,  avg # of iterations =  4.0

     negative rho (up, down):  0.907E-02 0.000E+00

     total cpu time spent up to now is     1803.7 secs

     total energy              =     -75.83102426 Ry
     Harris-Foulkes estimate   =     -75.83106093 Ry
     estimated scf accuracy    <       0.00009299 Ry

     iteration #  2     ecut=    25.00 Ry     beta=0.70
[...]
     estimated scf accuracy    <       0.00000041 Ry

     convergence has been achieved in   4 iterations

     Forces acting on atoms (Ry/au):

     atom    1 type  1   force =    -0.00565913    0.01160201   -0.01829781
     atom    2 type  2   force =    -0.00132497    0.01037182   -0.00999914
     atom    3 type  1   force =    -0.04604533   -0.02779503    0.00023435
     atom    4 type  2   force =     0.00203473   -0.00878782    0.00652781
     atom    5 type  1   force =    -0.01046325   -0.00844888   -0.00855704
     atom    6 type  2   force =    -0.01155790    0.00042183   -0.00305689
     atom    7 type  1   force =     0.00063037   -0.02597716   -0.02402380
     atom    8 type  2   force =    -0.00773746   -0.00094812    0.00423067
     atom    9 type  1   force =    -0.05172803    0.05080455   -0.01284366
     atom   10 type  2   force =    -0.02387588    0.00795873    0.00352455
     atom   11 type  1   force =    -0.03637538    0.03037566   -0.00199394
     atom   12 type  2   force =    -0.00173634    0.00198878   -0.00507067

     Total force =     0.117499     Total SCF correction =     0.000839

     Entering Dynamics:    iteration =    97
                           time      =   0.0939 pico-seconds


ATOMIC_POSITIONS (angstrom)
C        6.544628205   5.553409094   4.748190558
H        7.551942916   5.719333786   4.356553392
C        5.809390365   6.598631214   5.309723523
H        6.170835801   7.621979373   5.308627998
C        4.535747555   6.331870543   5.855756588
H        3.970695255   7.145404856   6.313393291
C        4.032084204   5.035090623   5.866431438
H        3.058207867   4.828717306   6.301702776
C        4.791795316   3.985237001   5.291436621
H        4.415743149   2.967174480   5.208383680
C        6.025578286   4.258553112   4.705482733
H        6.601397880   3.473567128   4.219979418


     kinetic energy (Ekin) =     0.00720298 Ry
     temperature           =    68.92479077 K 
     Ekin + Etot (const)   =   -75.39789623 Ry
     Message from routine dynamics:
     Total linear momentum <> 0

     Linear momentum :   -0.1813686801   -0.2250610307    0.2231645879
 ****** END OF FORCE_ESF COMPUTATION ******
     Check: negative starting charge=   -0.001504
     NEW-OLD atomic charge density approx. for the potential
     Check: negative starting charge=   -0.001504

     negative rho (up, down):  0.914E-02 0.000E+00
 ****** END OF ADD_ESF COMPUTATION ******

     total cpu time spent up to now is    10788.4 secs

     per-process dynamical memory:    21.6 Mb

     Self-consistent Calculation

     iteration #  1     ecut=    25.00 Ry     beta=0.70
     Davidson diagonalization with overlap
     ethr =  1.00E-06,  avg # of iterations =  4.0

     negative rho (up, down):  0.914E-02 0.000E+00

     total cpu time spent up to now is    10789.1 secs

     total energy              =     -75.34320776 Ry
     Harris-Foulkes estimate   =     -75.34324437 Ry
     estimated scf accuracy    <       0.00011468 Ry

     iteration #  2     ecut=    25.00 Ry     beta=0.70
     Davidson diagonalization with overlap
     ethr =  3.82E-07,  avg # of iterations =  3.0

     negative rho (up, down):  0.915E-02 0.000E+00

     total cpu time spent up to now is    10789.7 secs

     total energy              =     -75.34321358 Ry
     Harris-Foulkes estimate   =     -75.34323892 Ry
     estimated scf accuracy    <       0.00004517 Ry

     iteration #  3     ecut=    25.00 Ry     beta=0.70
     Davidson diagonalization with overlap
     ethr =  1.51E-07,  avg # of iterations =  4.0

     negative rho (up, down):  0.915E-02 0.000E+00

     total cpu time spent up to now is    10790.3 secs

     total energy              =     -75.34322580 Ry
     Harris-Foulkes estimate   =     -75.34323347 Ry
     estimated scf accuracy    <       0.00001831 Ry

     iteration #  4     ecut=    25.00 Ry     beta=0.70
     Davidson diagonalization with overlap
     ethr =  6.10E-08,  avg # of iterations =  3.0

     negative rho (up, down):  0.915E-02 0.000E+00

     total cpu time spent up to now is    10790.8 secs

     End of self-consistent calculation

          k = 0.0000 0.0000 0.0000 (  8440 PWs)   bands (ev):

   -20.6081 -17.8895 -17.7867 -14.2801 -14.1534 -12.2419 -10.5821 -10.2877
    -9.6367  -9.5429  -8.5008  -7.6438  -7.5722  -5.8154  -5.7423

!    total energy              =     -75.34322925 Ry
     Harris-Foulkes estimate   =     -75.34322972 Ry
     estimated scf accuracy    <       0.00000066 Ry

     convergence has been achieved in   4 iterations

     Forces acting on atoms (Ry/au):

     atom    1 type  1   force =    -0.00785106    0.01283632   -0.01454572
     atom    2 type  2   force =    -0.00331617    0.00980731   -0.00914150
     atom    3 type  1   force =    -0.04481490   -0.03025733   -0.00167989
     atom    4 type  2   force =     0.00154505   -0.01138522    0.00694715
     atom    5 type  1   force =    -0.00782680   -0.00261275   -0.00911959
     atom    6 type  2   force =    -0.01230983   -0.00089880   -0.00260378
     atom    7 type  1   force =    -0.00180195   -0.02410367   -0.01900010
     atom    8 type  2   force =    -0.00612710   -0.00229338    0.00250991
     atom    9 type  1   force =    -0.05480879    0.04330532   -0.01525418
     atom   10 type  2   force =    -0.02503344    0.00854852    0.00585434
     atom   11 type  1   force =    -0.02586454    0.03567110   -0.00505347
     atom   12 type  2   force =    -0.00534878    0.00246858   -0.00363800

     Total force =     0.113584     Total SCF correction =     0.001386

     Entering Dynamics:    iteration =    98
                           time      =   0.0948 pico-seconds


ATOMIC_POSITIONS (angstrom)
C        6.544458490   5.553701533   4.745341859
H        7.552125339   5.720965687   4.350040678
C        5.807640147   6.599038722   5.311396997
H        6.165037860   7.627486119   5.307258308
C        4.534974475   6.326654091   5.858144293
H        3.972288076   7.145368174   6.313501092
C        4.029172073   5.031613089   5.864013921
H        3.052503890   4.833014599   6.306876795
C        4.792301444   3.985458473   5.295140112
H        4.419005927   2.964807684   5.197822169
C        6.023699417   4.256460253   4.710670068
H        6.612673654   3.474070034   4.228620171


     kinetic energy (Ekin) =     0.00702750 Ry
     temperature           =    67.24564163 K 
     Ekin + Etot (const)   =   -75.33620175 Ry
     Message from routine dynamics:
     Total linear momentum <> 0

     Linear momentum :   -0.1699859878   -0.2343989239    0.1889210245
 ****** END OF FORCE_ESF COMPUTATION ******
     Check: negative starting charge=   -0.001504
     NEW-OLD atomic charge density approx. for the potential
     Check: negative starting charge=   -0.001503

     negative rho (up, down):  0.912E-02 0.000E+00
 ****** END OF ADD_ESF COMPUTATION ******

     total cpu time spent up to now is    10898.8 secs

     per-process dynamical memory:    21.6 Mb

     Self-consistent Calculation

     iteration #  1     ecut=    25.00 Ry     beta=0.70
     Davidson diagonalization with overlap
     ethr =  1.00E-06,  avg # of iterations =  4.0

     negative rho (up, down):  0.912E-02 0.000E+00

     total cpu time spent up to now is    10899.5 secs

     total energy              =     -75.29080813 Ry
     Harris-Foulkes estimate   =     -75.29086661 Ry
     estimated scf accuracy    <       0.00014198 Ry

     iteration #  2     ecut=    25.00 Ry     beta=0.70
     Davidson diagonalization with overlap
     ethr =  4.73E-07,  avg # of iterations =  3.0

     negative rho (up, down):  0.913E-02 0.000E+00

     total cpu time spent up to now is    10900.1 secs

     total energy              =     -75.29081467 Ry
     Harris-Foulkes estimate   =     -75.29085767 Ry
     estimated scf accuracy    <       0.00007695 Ry

     iteration #  3     ecut=    25.00 Ry     beta=0.70
     Davidson diagonalization with overlap
     ethr =  2.56E-07,  avg # of iterations =  4.0

     negative rho (up, down):  0.913E-02 0.000E+00

     total cpu time spent up to now is    10900.7 secs

     total energy              =     -75.29083620 Ry
     Harris-Foulkes estimate   =     -75.29084448 Ry
     estimated scf accuracy    <       0.00002014 Ry

     iteration #  4     ecut=    25.00 Ry     beta=0.70
     Davidson diagonalization with overlap
     ethr =  6.71E-08,  avg # of iterations =  3.0

     negative rho (up, down):  0.913E-02 0.000E+00

     total cpu time spent up to now is    10901.2 secs

     End of self-consistent calculation

          k = 0.0000 0.0000 0.0000 (  8440 PWs)   bands (ev):

   -20.5887 -17.8612 -17.7641 -14.2579 -14.1138 -12.2075 -10.5375 -10.2700
    -9.6028  -9.5124  -8.4827  -7.6107  -7.5417  -5.7913  -5.7254

!    total energy              =     -75.29084000 Ry
     Harris-Foulkes estimate   =     -75.29084023 Ry
     estimated scf accuracy    <       0.00000041 Ry

     convergence has been achieved in   4 iterations

     Forces acting on atoms (Ry/au):

     atom    1 type  1   force =    -0.01000748    0.01221544   -0.01399047
     atom    2 type  2   force =    -0.00528902    0.00861208   -0.00881690
     atom    3 type  1   force =    -0.04141254   -0.03198394   -0.00675926
     atom    4 type  2   force =     0.00019037   -0.01592017    0.00688348
     atom    5 type  1   force =    -0.00705021    0.00215625   -0.01149563
     atom    6 type  2   force =    -0.01220979   -0.00360079   -0.00325069
     atom    7 type  1   force =    -0.00752619   -0.02194921   -0.01496805
     atom    8 type  2   force =    -0.00115420   -0.00328104   -0.00132623
     atom    9 type  1   force =    -0.05784209    0.03173416   -0.02082467
     atom   10 type  2   force =    -0.02497677    0.01091791    0.00730073
     atom   11 type  1   force =    -0.01387721    0.03838658   -0.01216595
     atom   12 type  2   force =    -0.00963076    0.00386559   -0.00235145

     Total force =     0.111153     Total SCF correction =     0.001026

     Entering Dynamics:    iteration =    99
                           time      =   0.0958 pico-seconds


ATOMIC_POSITIONS (angstrom)
C        6.544661128   5.554220878   4.742250205
H        7.551909454   5.724005978   4.342509974
C        5.805713825   6.599368210   5.312837776
H        6.161138142   7.632501622   5.305868941
C        4.534786475   6.321756271   5.860294055
H        3.973240334   7.145523059   6.313252182
C        4.026640971   5.027690283   5.861203572
H        3.046041437   4.836492057   6.311900171
C        4.792562358   3.985821505   5.298356444
H        4.420607888   2.961930134   5.190018206
C        6.022309486   4.254562127   4.715609863
H        6.623428439   3.473304682   4.237813091


     kinetic energy (Ekin) =     0.00671083 Ry
     temperature           =    64.21543109 K 
     Ekin + Etot (const)   =   -75.28412917 Ry
     Message from routine dynamics:
     Total linear momentum <> 0

     Linear momentum :   -0.1381447356   -0.2283620070    0.1451444000
 ****** END OF FORCE_ESF COMPUTATION ******
     Check: negative starting charge=   -0.001503
     NEW-OLD atomic charge density approx. for the potential
     Check: negative starting charge=   -0.001500

     negative rho (up, down):  0.909E-02 0.000E+00
 ****** END OF ADD_ESF COMPUTATION ******

     total cpu time spent up to now is    11009.2 secs

     per-process dynamical memory:    21.6 Mb

     Self-consistent Calculation

     iteration #  1     ecut=    25.00 Ry     beta=0.70
     Davidson diagonalization with overlap
     ethr =  1.00E-06,  avg # of iterations =  4.0

     negative rho (up, down):  0.909E-02 0.000E+00

     total cpu time spent up to now is    11009.9 secs

     total energy              =     -75.24801118 Ry
     Harris-Foulkes estimate   =     -75.24807700 Ry
     estimated scf accuracy    <       0.00014686 Ry

     iteration #  2     ecut=    25.00 Ry     beta=0.70
     Davidson diagonalization with overlap
     ethr =  4.90E-07,  avg # of iterations =  3.0

     negative rho (up, down):  0.910E-02 0.000E+00

     total cpu time spent up to now is    11010.5 secs

     total energy              =     -75.24801842 Ry
     Harris-Foulkes estimate   =     -75.24806645 Ry
     estimated scf accuracy    <       0.00008685 Ry

     iteration #  3     ecut=    25.00 Ry     beta=0.70
     Davidson diagonalization with overlap
     ethr =  2.89E-07,  avg # of iterations =  4.0

     negative rho (up, down):  0.911E-02 0.000E+00

     total cpu time spent up to now is    11011.2 secs

     total energy              =     -75.24804248 Ry
     Harris-Foulkes estimate   =     -75.24805024 Ry
     estimated scf accuracy    <       0.00001881 Ry

     iteration #  4     ecut=    25.00 Ry     beta=0.70
     Davidson diagonalization with overlap
     ethr =  6.27E-08,  avg # of iterations =  3.0

     negative rho (up, down):  0.911E-02 0.000E+00

     total cpu time spent up to now is    11011.6 secs

     End of self-consistent calculation

          k = 0.0000 0.0000 0.0000 (  8440 PWs)   bands (ev):

   -20.5747 -17.8342 -17.7481 -14.2357 -14.0807 -12.1757 -10.4939 -10.2586
    -9.5702  -9.4861  -8.4700  -7.5858  -7.5091  -5.7697  -5.7152

!    total energy              =     -75.24804602 Ry
     Harris-Foulkes estimate   =     -75.24804628 Ry
     estimated scf accuracy    <       0.00000044 Ry

     convergence has been achieved in   4 iterations

     Forces acting on atoms (Ry/au):

     atom    1 type  1   force =    -0.01310822    0.01030729   -0.01081350
     atom    2 type  2   force =    -0.00708800    0.00711033   -0.00786520
     atom    3 type  1   force =    -0.03734654   -0.03370267   -0.00945006
     atom    4 type  2   force =    -0.00164242   -0.02083066    0.00740446
     atom    5 type  1   force =    -0.00802046    0.00559496   -0.01111657
     atom    6 type  2   force =    -0.01167043   -0.00692388   -0.00366147
     atom    7 type  1   force =    -0.01481241   -0.01914354   -0.00793761
     atom    8 type  2   force =     0.00489590   -0.00419546   -0.00522221
     atom    9 type  1   force =    -0.06090336    0.01838554   -0.02382222
     atom   10 type  2   force =    -0.02427201    0.01400523    0.00893864
     atom   11 type  1   force =    -0.00284074    0.03975884   -0.01655937
     atom   12 type  2   force =    -0.01388644    0.00541303   -0.00057675

     Total force =     0.111216     Total SCF correction =     0.001028

     Entering Dynamics:    iteration =   100
                           time      =   0.0968 pico-seconds


ATOMIC_POSITIONS (angstrom)
C        6.545226889   5.555049943   4.738929656
H        7.550837609   5.728352895   4.334365895
C        5.803760174   6.599698459   5.313924445
H        6.158737217   7.635964395   5.304691818
C        4.535230436   6.317354485   5.862146392
H        3.973763943   7.145208622   6.312634162
C        4.024401788   5.023489153   5.858088057
H        3.040343782   4.839102522   6.315919372
C        4.792575659   3.986166092   5.300971472
H        4.420777800   2.959549571   5.185569926
C        6.021693759   4.253005503   4.720162155
H        6.632585826   3.471911550   4.248198115


     kinetic energy (Ekin) =     0.00620164 Ry
     temperature           =    59.34302207 K 
     Ekin + Etot (const)   =   -75.24184438 Ry
     Message from routine dynamics:
     Total linear momentum <> 0

     Linear momentum :   -0.0964067447   -0.2100691084    0.0949391044
 ****** END OF FORCE_ESF COMPUTATION ******
     Check: negative starting charge=   -0.001500
     NEW-OLD atomic charge density approx. for the potential
     Check: negative starting charge=   -0.001498

     negative rho (up, down):  0.907E-02 0.000E+00
 ****** END OF ADD_ESF COMPUTATION ******

     total cpu time spent up to now is    11119.8 secs

     per-process dynamical memory:    21.6 Mb

     Self-consistent Calculation

     iteration #  1     ecut=    25.00 Ry     beta=0.70
     Davidson diagonalization with overlap
     ethr =  1.00E-06,  avg # of iterations =  4.0

     negative rho (up, down):  0.907E-02 0.000E+00

     total cpu time spent up to now is    11120.5 secs

     total energy              =     -75.21599384 Ry
     Harris-Foulkes estimate   =     -75.21603966 Ry
     estimated scf accuracy    <       0.00011327 Ry

     iteration #  2     ecut=    25.00 Ry     beta=0.70
     Davidson diagonalization with overlap
     ethr =  3.78E-07,  avg # of iterations =  3.0

     negative rho (up, down):  0.908E-02 0.000E+00

     total cpu time spent up to now is    11121.1 secs

     total energy              =     -75.21599985 Ry
     Harris-Foulkes estimate   =     -75.21602930 Ry
     estimated scf accuracy    <       0.00005178 Ry

     iteration #  3     ecut=    25.00 Ry     beta=0.70
     Davidson diagonalization with overlap
     ethr =  1.73E-07,  avg # of iterations =  4.0

     negative rho (up, down):  0.909E-02 0.000E+00

     total cpu time spent up to now is    11121.7 secs

     total energy              =     -75.21601414 Ry
     Harris-Foulkes estimate   =     -75.21602129 Ry
     estimated scf accuracy    <       0.00001694 Ry

     iteration #  4     ecut=    25.00 Ry     beta=0.70
     Davidson diagonalization with overlap
     ethr =  5.65E-08,  avg # of iterations =  3.0

     negative rho (up, down):  0.909E-02 0.000E+00

     total cpu time spent up to now is    11122.2 secs

     End of self-consistent calculation

          k = 0.0000 0.0000 0.0000 (  8440 PWs)   bands (ev):

   -20.5644 -17.8099 -17.7394 -14.2171 -14.0572 -12.1513 -10.4602 -10.2517
    -9.5441  -9.4663  -8.4609  -7.5716  -7.4788  -5.7511  -5.7103

!    total energy              =     -75.21601737 Ry
     Harris-Foulkes estimate   =     -75.21601764 Ry
     estimated scf accuracy    <       0.00000042 Ry

     convergence has been achieved in   4 iterations

     Forces acting on atoms (Ry/au):

     atom    1 type  1   force =    -0.01797064    0.00971235   -0.00770714
     atom    2 type  2   force =    -0.00819448    0.00606883   -0.00713523
     atom    3 type  1   force =    -0.03381528   -0.03423146   -0.01232479
     atom    4 type  2   force =    -0.00345871   -0.02400144    0.00787648
     atom    5 type  1   force =    -0.01096846    0.00907187   -0.01092780
     atom    6 type  2   force =    -0.01127867   -0.00945480   -0.00397179
     atom    7 type  1   force =    -0.02200010   -0.01325947   -0.00155655
     atom    8 type  2   force =     0.00988628   -0.00478550   -0.00872342
     atom    9 type  1   force =    -0.06376887    0.00785623   -0.02662738
     atom   10 type  2   force =    -0.02352592    0.01687512    0.01005317
     atom   11 type  1   force =     0.00486663    0.04284230   -0.01997231
     atom   12 type  2   force =    -0.01729746    0.00676929    0.00045488

     Total force =     0.116370     Total SCF correction =     0.001074

     Entering Dynamics:    iteration =   101
                           time      =   0.0977 pico-seconds


ATOMIC_POSITIONS (angstrom)
C        6.546088058   5.556238001   4.735437443
H        7.548656166   5.733940640   4.325664200
C        5.801887907   6.600076672   5.314589359
H        6.157434984   7.637179843   5.303721253
C        4.536279666   6.313577179   5.863703699
H        3.974016777   7.143928593   6.311475677
C        4.022336655   5.019189689   5.854806384
H        3.036669185   4.840850371   6.317992346
C        4.792318971   3.986334748   5.302928934
H        4.419788155   2.958577302   5.184697535
C        6.022049924   4.251913454   4.724249915
H        6.639331729   3.470411874   4.259928614


     kinetic energy (Ekin) =     0.00565328 Ry
     temperature           =    54.09579607 K 
     Ekin + Etot (const)   =   -75.21036410 Ry
     Message from routine dynamics:
     Total linear momentum <> 0

     Linear momentum :   -0.0523343636   -0.1818049082    0.0431773504
 ****** END OF FORCE_ESF COMPUTATION ******
