LAMMPS data file for ALA

1555 atoms
1554 bonds
21 angles
25 dihedrals

9 atom types
9 bond types
12 angle types
3 dihedral types

0.0 28.911821 xlo xhi
0.0 29.461019 ylo yhi
0.0 30.130040000000001 zlo zhi

Masses

1 16.0
2 12.01
3 12.01
4 14.01
5 1.008
6 1.008
7 1.008
8 16.0
9 1.008

Pair Coeffs

1 0.20999999984182244 2.9599219016446874
2 0.086000000128358844 3.3996695079448309
3 0.10939999991572773 3.3996695084507409
4 0.16999999991766696 3.2499985240310356
5 0.015700000004219245 1.0690784617205229
6 0.015700000062726104 1.9599771790073583
7 0.01570000002623629 2.6495327872602221
8 0.15199999972108216 3.1507524071300703
9 0.0 0.0

Bond Coeffs

1 648.0 1.214
2 328.30000000000001 1.508
3 293.60000000000002 1.4990000000000001
4 338.69999999999999 1.091
5 303.10000000000002 1.5349999999999999
6 369.0 1.0329999999999999
7 337.30000000000001 1.0920000000000001
8 553.0 0.95720000000000005
9 553.0 1.5136000000000001

Angle Coeffs

1 79.099999999999994 127.33005462783707
2 68.0 123.1100525900646
3 65.799999999999997 111.54004768873976
4 47.399999999999999 108.64004644587028
5 63.799999999999997 110.53004742776565
6 46.200000000000003 110.11004701858076
7 46.399999999999999 110.05004745123244
8 49.0 107.91004607571426
9 66.0 108.93004674204457
10 40.5 108.11004616142939
11 46.0 111.74004777445489
12 39.399999999999999 108.3500467226538

Dihedral Coeffs

1 0.0 -1 2
2 0.15555555600000001 1 3
3 1.1000000000000001 -1 2

Atoms

1 0 1 -0.80322999840854337 12.9172168 16.1641312 14.929909500000001
2 0 2 0.93724000263413498 13.5905922 15.3296604 15.5097241
3 0 1 -0.70718999796952087 14.038221699999999 15.574552600000001 16.737956799999999
4 0 3 -0.075600000000000001 13.9171522 14.025869500000001 14.841525799999999
5 0 4 -0.83944999807927645 13.3010153 13.9926829 13.505091
6 0 5 0.41856000010975564 13.5945211 13.157439699999999 13.025224100000001
7 0 5 0.48733000005487781 13.3555425 14.7810086 12.8808968
8 0 5 0.42190999983536659 12.357148199999999 13.894890800000001 13.8451138
9 0 6 0.088920000219511255 13.5426571 13.188985199999999 15.4456632
10 0 3 -0.10606999994512219 15.4416019 13.884737899999999 14.7054966
11 0 7 0.050689999999999999 15.843947099999999 14.74948 14.161489899999999
12 0 7 0.02069 15.6753331 12.961215299999999 14.1535212
13 0 7 0.1062 15.8936607 13.8376073 15.7094018
14 0 8 -0.83399999999999996 26.434259999999998 23.239097999999998 22.820457000000001
15 0 9 0.41699999999999998 26.353664999999999 22.324559000000001 22.549627999999998
16 0 9 0.41699999999999998 26.020702 23.735804999999999 22.114428
17 0 8 -0.83399999999999996 24.566064000000001 25.016999999999999 24.701384000000001
18 0 9 0.41699999999999998 23.790274 24.537044000000002 24.991240999999999
19 0 9 0.41699999999999998 25.217357 24.337565000000001 24.527000000000001
20 0 8 -0.83399999999999996 18.582647000000001 25.328980999999999 25.578959999999999
21 0 9 0.41699999999999998 17.751135000000001 25.073851999999999 25.978611000000001
22 0 9 0.41699999999999998 19.190745 25.400058000000001 26.314751999999999
23 0 8 -0.83399999999999996 16.991841999999998 20.289169999999999 19.363199000000002
24 0 9 0.41699999999999998 16.103511999999998 20.630766999999999 19.261187
25 0 9 0.41699999999999998 17.275960999999999 20.089202 18.471281999999999
26 0 8 -0.83399999999999996 14.955143 22.889735000000002 25.247169
27 0 9 0.41699999999999998 15.526754 22.121955 25.247533000000001
28 0 9 0.41699999999999998 14.955297 23.188611000000002 24.33783
29 0 8 -0.83399999999999996 24.006962999999999 27.692719 24.708400000000001
30 0 9 0.41699999999999998 23.937791000000001 26.751712999999999 24.547312999999999
31 0 9 0.41699999999999998 24.768948999999999 27.782859999999999 25.280657000000001
32 0 8 -0.83399999999999996 16.19763 18.298171 27.034061999999999
33 0 9 0.41699999999999998 16.017914000000001 17.400746000000002 27.314337999999999
34 0 9 0.41699999999999998 15.795638 18.845358000000001 27.708756999999999
35 0 8 -0.83399999999999996 25.037479999999999 20.499756999999999 24.935293000000001
36 0 9 0.41699999999999998 25.413962000000001 19.626944999999999 24.822659999999999
37 0 9 0.41699999999999998 24.939430999999999 20.835626999999999 24.044336999999999
38 0 8 -0.83399999999999996 19.167981000000001 18.872319999999998 20.397037000000001
39 0 9 0.41699999999999998 19.274656 19.772693 20.703913
40 0 9 0.41699999999999998 18.257217000000001 18.824117000000001 20.106501999999999
41 0 8 -0.83399999999999996 16.816296999999999 20.794221 25.642296000000002
42 0 9 0.41699999999999998 17.497308 21.058057999999999 26.261036000000001
43 0 9 0.41699999999999998 16.501101999999999 19.954308000000001 25.976096999999999
44 0 8 -0.83399999999999996 21.008754 21.840957 24.729555000000001
45 0 9 0.41699999999999998 21.516576000000001 22.339054000000001 25.370056999999999
46 0 9 0.41699999999999998 21.540078000000001 21.064477 24.553491000000001
47 0 8 -0.83399999999999996 25.679473000000002 26.592744 20.494886999999999
48 0 9 0.41699999999999998 25.061199999999999 27.057689 19.931159000000001
49 0 9 0.41699999999999998 26.191797999999999 27.285492000000001 20.911837999999999
50 0 8 -0.83399999999999996 20.542649000000001 26.120331 27.173247
51 0 9 0.41699999999999998 20.209586999999999 26.747223000000002 27.815353999999999
52 0 9 0.41699999999999998 20.719317 26.646519000000001 26.393414
53 0 8 -0.83399999999999996 18.973897000000001 18.191808999999999 27.002942000000001
54 0 9 0.41699999999999998 19.315577999999999 19.036014000000002 26.708328999999999
55 0 9 0.41699999999999998 18.035478000000001 18.340183 27.119475999999999
56 0 8 -0.83399999999999996 22.656686000000001 15.680035999999999 23.327400999999998
57 0 9 0.41699999999999998 22.964183999999999 15.124725 22.610951
58 0 9 0.41699999999999998 21.726756000000002 15.814482 23.1447
59 0 8 -0.83399999999999996 25.044761999999999 23.744918999999999 20.063413000000001
60 0 9 0.41699999999999998 24.11769 23.678657000000001 20.292259999999999
61 0 9 0.41699999999999998 25.197244000000001 24.682932000000001 19.948937000000001
62 0 8 -0.83399999999999996 25.031669999999998 20.016618999999999 17.060129
63 0 9 0.41699999999999998 24.092037000000001 20.178014999999998 17.145375000000001
64 0 9 0.41699999999999998 25.349996000000001 20.735187 16.513728
65 0 8 -0.83399999999999996 20.650426 24.271393 22.845386000000001
66 0 9 0.41699999999999998 20.246126 23.559118000000002 22.349976000000002
67 0 9 0.41699999999999998 20.736737999999999 23.926717 23.734190000000002
68 0 8 -0.83399999999999996 19.363288000000001 21.045714 26.62529
69 0 9 0.41699999999999998 19.914746999999998 21.155248 25.850615000000001
70 0 9 0.41699999999999998 19.877638999999999 21.419474000000001 27.340813000000001
71 0 8 -0.83399999999999996 17.350888999999999 23.165890999999998 20.346050999999999
72 0 9 0.41699999999999998 17.230649 23.892099999999999 19.734178
73 0 9 0.41699999999999998 17.040977999999999 22.396182 19.868842000000001
74 0 8 -0.83399999999999996 14.989426 26.337405 26.152915
75 0 9 0.41699999999999998 15.067468 26.472282 25.208487000000002
76 0 9 0.41699999999999998 15.603593999999999 25.628993999999999 26.345727
77 0 8 -0.83399999999999996 19.817254999999999 16.509398000000001 23.728418000000001
78 0 9 0.41699999999999998 19.37407 17.290351999999999 23.39687
79 0 9 0.41699999999999998 20.375754000000001 16.832387000000001 24.435511999999999
80 0 8 -0.83399999999999996 22.933136999999999 16.130468 18.609000999999999
81 0 9 0.41699999999999998 22.308554999999998 16.126455 19.334332
82 0 9 0.41699999999999998 22.846149 15.263564000000001 18.212598
83 0 8 -0.83399999999999996 21.854845000000001 17.054131000000002 25.587378000000001
84 0 9 0.41699999999999998 22.152077999999999 17.960414 25.50658
85 0 9 0.41699999999999998 22.403400999999999 16.566009000000001 24.973334999999999
86 0 8 -0.83399999999999996 19.608677 21.632755 21.456543
87 0 9 0.41699999999999998 19.382769 21.416471999999999 22.361205000000002
88 0 9 0.41699999999999998 18.827929999999999 22.065601000000001 21.111139999999999
89 0 8 -0.83399999999999996 25.444939999999999 20.275445999999999 22.085936
90 0 9 0.41699999999999998 25.837897000000002 20.592666000000001 21.272805000000002
91 0 9 0.41699999999999998 25.806625 19.396633999999999 22.200388
92 0 8 -0.83399999999999996 14.481356999999999 16.865525999999999 24.308955999999998
93 0 9 0.41699999999999998 14.192662 17.435811999999999 25.021453999999999
94 0 9 0.41699999999999998 15.225932999999999 16.385971000000001 24.672079
95 0 8 -0.83399999999999996 14.668380000000001 20.807538000000001 15.519228
96 0 9 0.41699999999999998 14.585846999999999 21.750613999999999 15.660727
97 0 9 0.41699999999999998 14.316686000000001 20.665029000000001 14.640463
98 0 8 -0.83399999999999996 26.030453999999999 22.866021 26.181014000000001
99 0 9 0.41699999999999998 25.298566000000001 23.374701999999999 26.530024000000001
100 0 9 0.41699999999999998 25.632888000000001 22.049019000000001 25.879892000000002
101 0 8 -0.83399999999999996 22.468192999999999 19.541440999999999 24.586262999999999
102 0 9 0.41699999999999998 22.471799000000001 19.100435999999998 23.736716999999999
103 0 9 0.41699999999999998 23.363305 19.863174000000001 24.693445000000001
104 0 8 -0.83399999999999996 18.318431 19.42409 23.545684000000001
105 0 9 0.41699999999999998 17.978435999999999 19.901613000000001 24.302389000000002
106 0 9 0.41699999999999998 17.556163000000002 18.970602 23.185794000000001
107 0 8 -0.83399999999999996 22.530207999999998 20.542649000000001 17.576938999999999
108 0 9 0.41699999999999998 22.651489999999999 20.501297000000001 18.525521000000001
109 0 9 0.41699999999999998 22.145059 21.405063999999999 17.421612
110 0 8 -0.83399999999999996 26.493044999999999 18.319389000000001 25.593308
111 0 9 0.41699999999999998 26.510318999999999 18.770254000000001 26.437493
112 0 9 0.41699999999999998 26.244603000000001 17.419953 25.806652
113 0 8 -0.83399999999999996 21.542358 22.852762999999999 16.975269000000001
114 0 9 0.41699999999999998 20.974048 22.404588 16.348859999999998
115 0 9 0.41699999999999998 22.251258 23.212040999999999 16.441783999999998
116 0 8 -0.83399999999999996 22.768989999999999 23.601618999999999 26.332803999999999
117 0 9 0.41699999999999998 23.136002999999999 23.127476000000001 27.078938000000001
118 0 9 0.41699999999999998 22.579495999999999 24.475776 26.673638
119 0 8 -0.83399999999999996 15.633039 18.345987999999998 22.462150999999999
120 0 9 0.41699999999999998 15.347731 17.981555 23.300013
121 0 9 0.41699999999999998 15.570925000000001 17.614034 21.848465000000001
122 0 8 -0.83399999999999996 19.087105999999999 26.848582 19.247910000000001
123 0 9 0.41699999999999998 18.313331999999999 26.308344000000002 19.087782000000001
124 0 9 0.41699999999999998 19.816569000000001 26.329243000000002 18.909686000000001
125 0 8 -0.83399999999999996 25.306898 17.238914000000001 19.183488000000001
126 0 9 0.41699999999999998 24.493359000000002 16.740231000000001 19.108018999999999
127 0 9 0.41699999999999998 25.113092999999999 18.078738999999999 18.767123000000002
128 0 8 -0.83399999999999996 19.130845999999998 26.51662 22.885791000000001
129 0 9 0.41699999999999998 19.648713000000001 25.713446000000001 22.831479999999999
130 0 9 0.41699999999999998 18.679248000000001 26.454533999999999 23.727474000000001
131 0 8 -0.83399999999999996 26.900537 27.104831999999998 23.523071999999999
132 0 9 0.41699999999999998 27.252918999999999 26.507645 22.863209000000001
133 0 9 0.41699999999999998 26.016770000000001 26.779254999999999 23.693897
134 0 8 -0.83399999999999996 15.126105000000001 23.481883 16.421821000000001
135 0 9 0.41699999999999998 15.99559 23.764362999999999 16.705413
136 0 9 0.41699999999999998 14.635137 24.295470000000002 16.306702000000001
137 0 8 -0.83399999999999996 22.289586 24.869204 20.542649000000001
138 0 9 0.41699999999999998 22.745864000000001 25.679728999999998 20.768668000000002
139 0 9 0.41699999999999998 21.938407000000002 24.551518000000002 21.374497999999999
140 0 8 -0.83399999999999996 18.190764000000001 15.212968999999999 21.014900999999998
141 0 9 0.41699999999999998 18.062227 15.204758999999999 21.963393
142 0 9 0.41699999999999998 17.366966000000001 15.551278 20.664002
143 0 8 -0.83399999999999996 17.110755999999999 25.299230000000001 18.550027
144 0 9 0.41699999999999998 16.503551000000002 26.03912 18.559557000000002
145 0 9 0.41699999999999998 17.585691000000001 25.389165999999999 17.723846999999999
146 0 8 -0.83399999999999996 22.018640999999999 20.698601 20.45026
147 0 9 0.41699999999999998 21.310255999999999 21.167235000000002 20.891621000000001
148 0 9 0.41699999999999998 22.303089 20.040801999999999 21.084779000000001
149 0 8 -0.83399999999999996 26.050184000000002 17.423666999999998 21.889838999999998
150 0 9 0.41699999999999998 25.926962 17.44228 20.94079
151 0 9 0.41699999999999998 26.998640000000002 17.471561000000001 22.009678999999998
152 0 8 -0.83399999999999996 20.222142999999999 19.007109 17.825330999999998
153 0 9 0.41699999999999998 21.071196 19.444123999999999 17.759350000000001
154 0 9 0.41699999999999998 19.855270000000001 19.319134999999999 18.652536999999999
155 0 8 -0.83399999999999996 19.121285 25.260345000000001 16.298884000000001
156 0 9 0.41699999999999998 19.887612000000001 25.148481 16.861426999999999
157 0 9 0.41699999999999998 19.198754000000001 24.564142 15.646561
158 0 8 -0.83399999999999996 17.815961000000001 22.692851999999998 16.982173
159 0 9 0.41699999999999998 17.896319999999999 21.745602999999999 17.093913000000001
160 0 9 0.41699999999999998 18.707936 23.023540000000001 17.088239000000002
161 0 8 -0.83399999999999996 22.245403 27.235762999999999 15.772418999999999
162 0 9 0.41699999999999998 22.140467000000001 26.620998 16.498557000000002
163 0 9 0.41699999999999998 22.077825000000001 26.712351999999999 14.988720000000001
164 0 8 -0.83399999999999996 25.485676000000002 26.297765999999999 16.376618000000001
165 0 9 0.41699999999999998 24.936686000000002 26.744696000000001 17.020892
166 0 9 0.41699999999999998 26.107602 25.792691000000001 16.900385
167 0 8 -0.83399999999999996 21.153188 25.256858000000001 18.273147999999999
168 0 9 0.41699999999999998 21.574829999999999 25.090845000000002 19.116287
169 0 9 0.41699999999999998 21.278272000000001 24.446881000000001 17.778662000000001
170 0 8 -0.83399999999999996 23.665952000000001 24.280619000000002 15.520858
171 0 9 0.41699999999999998 24.186518 23.565521 15.154973
172 0 9 0.41699999999999998 24.312792000000002 24.919205999999999 15.820909
173 0 8 -0.83399999999999996 20.049078000000002 21.330181 15.218964
174 0 9 0.41699999999999998 19.847984 20.466916999999999 15.580298000000001
175 0 9 0.41699999999999998 19.878283 21.243517000000001 14.281124
176 0 8 -0.83399999999999996 18.847358 18.430243000000001 15.206752
177 0 9 0.41699999999999998 19.149947999999998 18.436986000000001 14.298667
178 0 9 0.41699999999999998 19.586817 18.080029 15.703518000000001
179 0 8 -0.83399999999999996 22.065850999999999 17.373705000000001 16.192371999999999
180 0 9 0.41699999999999998 21.718050999999999 16.696103999999998 15.612617
181 0 9 0.41699999999999998 22.267128 16.912655999999998 17.006710999999999
182 0 8 -0.83399999999999996 15.406415000000001 23.902470000000001 22.588809000000001
183 0 9 0.41699999999999998 14.751298999999999 23.633634000000001 21.944779
184 0 9 0.41699999999999998 16.244209999999999 23.792918 22.139006999999999
185 0 8 -0.83399999999999996 16.444008 24.287727 27.129142999999999
186 0 9 0.41699999999999998 16.811312000000001 24.200467 28.008745000000001
187 0 9 0.41699999999999998 15.87509 23.524381999999999 27.029828999999999
188 0 8 -0.83399999999999996 14.620222999999999 21.112362999999998 18.531341999999999
189 0 9 0.41699999999999998 13.716631 21.375382999999999 18.356508000000002
190 0 9 0.41699999999999998 15.104285000000001 21.383479999999999 17.751338000000001
191 0 8 -0.83399999999999996 17.162944 20.168917 16.44078
192 0 9 0.41699999999999998 17.872114 19.747239 15.955508
193 0 9 0.41699999999999998 16.446937999999999 20.236440000000002 15.809115
194 0 8 -0.83399999999999996 16.499579000000001 15.473469 25.383306999999999
195 0 9 0.41699999999999998 17.147197999999999 14.923207 24.942823000000001
196 0 9 0.41699999999999998 16.919763 15.727784 26.204888
197 0 8 -0.83399999999999996 24.891003000000001 15.957428 26.553229999999999
198 0 9 0.41699999999999998 24.108181999999999 16.431978000000001 26.832906000000001
199 0 9 0.41699999999999998 24.597296 15.052911 26.444548000000001
200 0 8 -0.83399999999999996 22.776425 18.376103000000001 22.064833
201 0 9 0.41699999999999998 21.963875999999999 18.001791999999998 21.724421
202 0 9 0.41699999999999998 23.280588999999999 17.620611 22.366952000000001
203 0 8 -0.83399999999999996 18.607558999999998 16.788581000000001 17.614799000000001
204 0 9 0.41699999999999998 19.136835000000001 16.001560999999999 17.485593999999999
205 0 9 0.41699999999999998 19.240390999999999 17.467700000000001 17.848351999999998
206 0 8 -0.83399999999999996 20.801342999999999 16.526095000000002 20.669338
207 0 9 0.41699999999999998 20.171617000000001 15.824826 20.836351000000001
208 0 9 0.41699999999999998 20.261856999999999 17.286508000000001 20.452653999999999
209 0 8 -0.83399999999999996 26.434259999999998 23.239097999999998 4.0461080000000003
210 0 9 0.41699999999999998 26.353664999999999 22.324559000000001 3.7752789999999998
211 0 9 0.41699999999999998 26.020702 23.735804999999999 3.3400789999999998
212 0 8 -0.83399999999999996 24.566064000000001 25.016999999999999 5.9270350000000001
213 0 9 0.41699999999999998 23.790274 24.537044000000002 6.2168919999999996
214 0 9 0.41699999999999998 25.217357 24.337565000000001 5.7526510000000002
215 0 8 -0.83399999999999996 18.582647000000001 25.328980999999999 6.8046110000000004
216 0 9 0.41699999999999998 17.751135000000001 25.073851999999999 7.2042619999999999
217 0 9 0.41699999999999998 19.190745 25.400058000000001 7.5404030000000004
218 0 8 -0.83399999999999996 14.955143 22.889735000000002 6.4728199999999996
219 0 9 0.41699999999999998 15.526754 22.121955 6.4731839999999998
220 0 9 0.41699999999999998 14.955297 23.188611000000002 5.5634810000000003
221 0 8 -0.83399999999999996 24.006962999999999 27.692719 5.9340510000000002
222 0 9 0.41699999999999998 23.937791000000001 26.751712999999999 5.772964
223 0 9 0.41699999999999998 24.768948999999999 27.782859999999999 6.5063079999999998
224 0 8 -0.83399999999999996 16.19763 18.298171 8.2597129999999996
225 0 9 0.41699999999999998 16.017914000000001 17.400746000000002 8.5399890000000003
226 0 9 0.41699999999999998 15.795638 18.845358000000001 8.9344079999999995
227 0 8 -0.83399999999999996 25.037479999999999 20.499756999999999 6.1609439999999998
228 0 9 0.41699999999999998 25.413962000000001 19.626944999999999 6.048311
229 0 9 0.41699999999999998 24.939430999999999 20.835626999999999 5.2699879999999997
230 0 8 -0.83399999999999996 16.816296999999999 20.794221 6.867947
231 0 9 0.41699999999999998 17.497308 21.058057999999999 7.4866869999999999
232 0 9 0.41699999999999998 16.501101999999999 19.954308000000001 7.2017480000000003
233 0 8 -0.83399999999999996 21.008754 21.840957 5.9552060000000004
234 0 9 0.41699999999999998 21.516576000000001 22.339054000000001 6.5957080000000001
235 0 9 0.41699999999999998 21.540078000000001 21.064477 5.7791420000000002
236 0 8 -0.83399999999999996 19.292363999999999 16.480813000000001 10.221548
237 0 9 0.41699999999999998 19.294208000000001 16.998052000000001 9.4161380000000001
238 0 9 0.41699999999999998 18.462795 16.003831000000002 10.198541000000001
239 0 8 -0.83399999999999996 20.542649000000001 26.120331 8.3988980000000009
240 0 9 0.41699999999999998 20.209586999999999 26.747223000000002 9.0410050000000002
241 0 9 0.41699999999999998 20.719317 26.646519000000001 7.619065
242 0 8 -0.83399999999999996 18.973897000000001 18.191808999999999 8.228593
243 0 9 0.41699999999999998 19.315577999999999 19.036014000000002 7.93398
244 0 9 0.41699999999999998 18.035478000000001 18.340183 8.3451269999999997
245 0 8 -0.83399999999999996 22.656686000000001 15.680035999999999 4.5530520000000001
246 0 9 0.41699999999999998 22.964183999999999 15.124725 3.8366020000000001
247 0 9 0.41699999999999998 21.726756000000002 15.814482 4.3703510000000003
248 0 8 -0.83399999999999996 20.650426 24.271393 4.0710369999999996
249 0 9 0.41699999999999998 20.246126 23.559118000000002 3.5756269999999999
250 0 9 0.41699999999999998 20.736737999999999 23.926717 4.9598409999999999
251 0 8 -0.83399999999999996 19.363288000000001 21.045714 7.8509409999999997
252 0 9 0.41699999999999998 19.914746999999998 21.155248 7.0762660000000004
253 0 9 0.41699999999999998 19.877638999999999 21.419474000000001 8.5664639999999999
254 0 8 -0.83399999999999996 19.037561 24.56765 11.461475
255 0 9 0.41699999999999998 18.898337999999999 25.43993 11.830215000000001
256 0 9 0.41699999999999998 18.155697 24.224931000000002 11.316269
257 0 8 -0.83399999999999996 14.989426 26.337405 7.3785660000000002
258 0 9 0.41699999999999998 15.067468 26.472282 6.4341379999999999
259 0 9 0.41699999999999998 15.603593999999999 25.628993999999999 7.5713780000000002
260 0 8 -0.83399999999999996 15.045377999999999 27.378822 9.9180119999999992
261 0 9 0.41699999999999998 15.208482 26.909358000000001 9.0999490000000005
262 0 9 0.41699999999999998 15.510623000000001 26.871178 10.582896
263 0 8 -0.83399999999999996 19.817254999999999 16.509398000000001 4.9540689999999996
264 0 9 0.41699999999999998 19.37407 17.290351999999999 4.6225209999999999
265 0 9 0.41699999999999998 20.375754000000001 16.832387000000001 5.6611630000000002
266 0 8 -0.83399999999999996 24.104236 19.376249999999999 10.557601
267 0 9 0.41699999999999998 23.642173 19.584551999999999 11.369595
268 0 9 0.41699999999999998 23.702047 18.562184999999999 10.254668000000001
269 0 8 -0.83399999999999996 26.199657999999999 22.09732 13.787146
270 0 9 0.41699999999999998 26.524999000000001 21.263694999999998 13.447369
271 0 9 0.41699999999999998 26.987691000000002 22.620172 13.934979
272 0 8 -0.83399999999999996 21.854845000000001 17.054131000000002 6.8130290000000002
273 0 9 0.41699999999999998 22.152077999999999 17.960414 6.7322309999999996
274 0 9 0.41699999999999998 22.403400999999999 16.566009000000001 6.1989859999999997
275 0 8 -0.83399999999999996 19.608677 21.632755 2.682194
276 0 9 0.41699999999999998 19.382769 21.416471999999999 3.586856
277 0 9 0.41699999999999998 18.827929999999999 22.065601000000001 2.3367909999999998
278 0 8 -0.83399999999999996 22.048597999999998 22.531313000000001 13.348221000000001
279 0 9 0.41699999999999998 21.952957999999999 21.590786000000001 13.198261
280 0 9 0.41699999999999998 22.891795999999999 22.75282 12.953028
281 0 8 -0.83399999999999996 25.444939999999999 20.275445999999999 3.3115869999999998
282 0 9 0.41699999999999998 25.837897000000002 20.592666000000001 2.498456
283 0 9 0.41699999999999998 25.806625 19.396633999999999 3.4260389999999998
284 0 8 -0.83399999999999996 17.179652000000001 18.942679999999999 11.501599000000001
285 0 9 0.41699999999999998 16.785990999999999 19.790201 11.708876999999999
286 0 9 0.41699999999999998 16.491492000000001 18.305316999999999 11.692463
287 0 8 -0.83399999999999996 23.754156999999999 19.026177000000001 14.571273
288 0 9 0.41699999999999998 23.063988999999999 18.833397000000001 15.205882000000001
289 0 9 0.41699999999999998 24.497387 19.309640999999999 15.103702999999999
290 0 8 -0.83399999999999996 14.481356999999999 16.865525999999999 5.5346070000000003
291 0 9 0.41699999999999998 14.192662 17.435811999999999 6.2471050000000004
292 0 9 0.41699999999999998 15.225932999999999 16.385971000000001 5.8977300000000001
293 0 8 -0.83399999999999996 26.030453999999999 22.866021 7.4066650000000003
294 0 9 0.41699999999999998 25.298566000000001 23.374701999999999 7.7556750000000001
295 0 9 0.41699999999999998 25.632888000000001 22.049019000000001 7.1055429999999999
296 0 8 -0.83399999999999996 22.468192999999999 19.541440999999999 5.8119139999999998
297 0 9 0.41699999999999998 22.471799000000001 19.100435999999998 4.9623679999999997
298 0 9 0.41699999999999998 23.363305 19.863174000000001 5.9190959999999997
299 0 8 -0.83399999999999996 18.318431 19.42409 4.7713349999999997
300 0 9 0.41699999999999998 17.978435999999999 19.901613000000001 5.5280399999999998
301 0 9 0.41699999999999998 17.556163000000002 18.970602 4.4114449999999996
302 0 8 -0.83399999999999996 26.493044999999999 18.319389000000001 6.8189590000000004
303 0 9 0.41699999999999998 26.510318999999999 18.770254000000001 7.663144
304 0 9 0.41699999999999998 26.244603000000001 17.419953 7.0323029999999997
305 0 8 -0.83399999999999996 16.619275999999999 26.753965000000001 12.077593
306 0 9 0.41699999999999998 16.234755 26.113332 12.675889
307 0 9 0.41699999999999998 16.930495000000001 27.457577000000001 12.647066000000001
308 0 8 -0.83399999999999996 22.768989999999999 23.601618999999999 7.5584550000000004
309 0 9 0.41699999999999998 23.136002999999999 23.127476000000001 8.304589
310 0 9 0.41699999999999998 22.579495999999999 24.475776 7.8992889999999996
311 0 8 -0.83399999999999996 15.633039 18.345987999999998 3.687802
312 0 9 0.41699999999999998 15.347731 17.981555 4.5256639999999999
313 0 9 0.41699999999999998 15.570925000000001 17.614034 3.0741160000000001
314 0 8 -0.83399999999999996 20.558927000000001 22.642482999999999 9.8768759999999993
315 0 9 0.41699999999999998 20.254633999999999 23.521681000000001 10.101912
316 0 9 0.41699999999999998 21.513573000000001 22.702462000000001 9.9126200000000004
317 0 8 -0.83399999999999996 25.227784 25.916024 12.1531
318 0 9 0.41699999999999998 25.161515000000001 24.995591000000001 11.898859
319 0 9 0.41699999999999998 24.598298 26.013567999999999 12.867564
320 0 8 -0.83399999999999996 19.130845999999998 26.51662 4.1114420000000003
321 0 9 0.41699999999999998 19.648713000000001 25.713446000000001 4.057131
322 0 9 0.41699999999999998 18.679248000000001 26.454533999999999 4.953125
323 0 8 -0.83399999999999996 16.615300000000001 23.482756999999999 11.024012000000001
324 0 9 0.41699999999999998 16.256793999999999 24.148142 11.611345999999999
325 0 9 0.41699999999999998 16.320755999999999 22.651112000000001 11.395274000000001
326 0 8 -0.83399999999999996 19.816611999999999 23.941181 13.907966999999999
327 0 9 0.41699999999999998 19.516625999999999 24.086898999999999 13.010749000000001
328 0 9 0.41699999999999998 20.587736 23.381710000000002 13.815306
329 0 8 -0.83399999999999996 26.900537 27.104831999999998 4.748723
330 0 9 0.41699999999999998 27.252918999999999 26.507645 4.0888600000000004
331 0 9 0.41699999999999998 26.016770000000001 26.779254999999999 4.9195479999999998
332 0 8 -0.83399999999999996 22.289586 24.869204 1.7683
333 0 9 0.41699999999999998 22.745864000000001 25.679728999999998 1.994319
334 0 9 0.41699999999999998 21.938407000000002 24.551518000000002 2.600149
335 0 8 -0.83399999999999996 18.190764000000001 15.212968999999999 2.2405520000000001
336 0 9 0.41699999999999998 18.062227 15.204758999999999 3.189044
337 0 9 0.41699999999999998 17.366966000000001 15.551278 1.889653
338 0 8 -0.83399999999999996 15.190156999999999 16.972080999999999 11.701222
339 0 9 0.41699999999999998 14.476008999999999 17.171773000000002 12.306483
340 0 9 0.41699999999999998 15.609660999999999 16.196038000000001 12.072702
341 0 8 -0.83399999999999996 26.684035000000002 19.464312 9.4513669999999994
342 0 9 0.41699999999999998 27.052116999999999 18.643833000000001 9.7793240000000008
343 0 9 0.41699999999999998 25.823854999999998 19.524501000000001 9.8669320000000003
344 0 8 -0.83399999999999996 23.644234000000001 22.118271 9.6751640000000005
345 0 9 0.41699999999999998 24.142759000000002 22.592853000000002 10.340349
346 0 9 0.41699999999999998 23.786529000000002 21.194623 9.8821670000000008
347 0 8 -0.83399999999999996 26.050184000000002 17.423666999999998 3.1154899999999999
348 0 9 0.41699999999999998 25.926962 17.44228 2.1664409999999998
349 0 9 0.41699999999999998 26.998640000000002 17.471561000000001 3.2353299999999998
350 0 8 -0.83399999999999996 15.343040999999999 24.514344000000001 13.443441
351 0 9 0.41699999999999998 15.846943 23.935072000000002 14.015064000000001
352 0 9 0.41699999999999998 14.603783 24.798366999999999 13.981078
353 0 8 -0.83399999999999996 22.396834999999999 25.921443 12.976993
354 0 9 0.41699999999999998 21.631402000000001 26.489943 12.89246
355 0 9 0.41699999999999998 22.578430999999998 25.629064 12.083816000000001
356 0 8 -0.83399999999999996 17.375349 22.657302999999999 14.338448
357 0 9 0.41699999999999998 17.415883000000001 22.358689999999999 15.246971
358 0 9 0.41699999999999998 18.229899 23.058064000000002 14.1792
359 0 8 -0.83399999999999996 19.315930000000002 21.236512999999999 12.305897
360 0 9 0.41699999999999998 18.785575999999999 20.745608000000001 11.678231
361 0 9 0.41699999999999998 19.984736999999999 21.664933000000001 11.77169
362 0 8 -0.83399999999999996 19.803159999999998 18.202750000000002 12.385626
363 0 9 0.41699999999999998 19.708846999999999 17.584824999999999 11.660712999999999
364 0 9 0.41699999999999998 19.222899000000002 18.929379000000001 12.158617
365 0 8 -0.83399999999999996 22.569303999999999 16.760073999999999 9.4183649999999997
366 0 9 0.41699999999999998 22.121034000000002 16.782499999999999 8.5729199999999999
367 0 9 0.41699999999999998 21.935824 16.361975999999999 10.015395
368 0 8 -0.83399999999999996 22.975259000000001 25.655507 10.039609
369 0 9 0.41699999999999998 23.394069999999999 26.49878 9.8672330000000006
370 0 9 0.41699999999999998 22.056121999999998 25.792711000000001 9.8102870000000006
371 0 8 -0.83399999999999996 25.311648999999999 23.387125000000001 11.423393000000001
372 0 9 0.41699999999999998 25.431270000000001 22.791239000000001 12.162877
373 0 9 0.41699999999999998 26.171049 23.424094 11.003522999999999
374 0 8 -0.83399999999999996 22.078526 19.929259999999999 12.680975
375 0 9 0.41699999999999998 22.668495 19.620844999999999 13.368757