LAMMPS data file

5964 atoms
4960 bonds
6944 angles
2976 dihedrals

6 atom types
3 bond types
3 angle types
1 dihedral types

0.0 41.16 xlo xhi
0.0 41.16 ylo yhi
0.0 41.16 zlo zhi

Masses

1 12.01
2 1.008
3 12.01
4 1.008
5 16.0
6 1.008

Pair Coeffs

1 0.0860 3.39967
2 0.0150 2.59964
3 0.1094 3.400
4 0.0157 2.471
5 0.2104 3.066
6 0.0000 0.000

Bond Coeffs

1 335.9 1.093
2 314.1 1.426
3 369.6 0.974

Angle Coeffs

1 47.09 108.16
2 39.18 109.55
3 50.97 109.88

Dihedral Coeffs

1 0.1667 1 3

Atoms

1 0 1 0.0 20.6805 22.6587 21.177
2 0 2 0.0 21.6808 22.8222 20.7842
3 0 1 0.0 20.0099 23.7116 21.7476
4 0 2 0.0 20.4112 24.7194 21.6772
5 0 1 0.0 18.7293 23.5119 22.2708
6 0 2 0.0 18.1523 24.3369 22.6807
7 0 1 0.0 18.1301 22.2304 22.2846
8 0 2 0.0 17.1856 21.9952 22.7685
9 0 1 0.0 18.8193 21.1774 21.657
10 0 2 0.0 18.356 20.1946 21.625
11 0 1 0.0 20.0578 21.4058 21.0563
12 0 2 0.0 20.58 20.58 20.58
13 1 3 0.1167 0.1154 2.57499 35.5702
14 1 4 0.0287 0.0063 1.67815 36.1853
15 1 4 0.0287 1.1012 3.04633 35.544
16 1 4 0.0287 40.5508 3.3479 35.839
17 1 5 -0.5988 40.9654 2.08761 34.204
18 1 6 0.3960 40.0499 1.76144 34.2694
19 1 3 0.1167 4.5705 41.0359 8.13609
20 1 4 0.0287 4.6304 0.04169 9.21478
21 1 4 0.0287 4.369 0.86492 7.71666
22 1 4 0.0287 3.9814 40.1684 7.82772
23 1 5 -0.5988 5.9034 40.732 7.76873
24 1 6 0.3960 6.53209 0.35676 7.85597
25 1 3 0.1167 4.77 4.27076 34.276
26 1 4 0.0287 4.3193 4.6982 33.3766
27 1 4 0.0287 5.6712 4.86875 34.4338
28 1 4 0.0287 5.1051 3.23657 34.1628
29 1 5 -0.5988 3.8342 4.48547 35.2928
30 1 6 0.3960 4.3185 4.3201 36.1216
31 1 3 0.1167 7.961 14.7687 23.5871
32 1 4 0.0287 8.10898 13.8145 23.075
33 1 4 0.0287 7.67167 15.4714 22.8016
34 1 4 0.0287 8.86944 15.1862 24.0288
35 1 5 -0.5988 6.92518 14.6138 24.5274
36 1 6 0.3960 6.88746 15.4291 25.059
37 1 3 0.1167 5.0417 30.7532 3.59647
38 1 4 0.0287 5.4894 31.65 4.03248
39 1 4 0.0287 5.4772 29.8452 4.0213
40 1 4 0.0287 5.3106 30.7124 2.4794
41 1 5 -0.5988 3.6838 30.7293 3.68134
42 1 6 0.3960 3.4049 29.8474 3.37622
43 1 3 0.1167 10.9691 18.18 11.3036
44 1 4 0.0287 10.2699 18.9875 11.5355
45 1 4 0.0287 11.0692 18.1328 10.2162
46 1 4 0.0287 10.5442 17.2391 11.6627
47 1 5 -0.5988 12.262 18.3873 11.9538
48 1 6 0.3960 12.7071 17.5262 12.0492
49 1 3 0.1167 23.2177 14.1064 32.4226
50 1 4 0.0287 24.1654 14.335 31.9284
51 1 4 0.0287 22.3567 14.705 32.1143
52 1 4 0.0287 23.2844 14.3796 33.4789
53 1 5 -0.5988 22.9074 12.7055 32.4727
54 1 6 0.3960 22.1108 12.5798 33.0188
55 1 3 0.1167 31.3084 29.7152 5.21601
56 1 4 0.0287 31.8714 29.3267 4.36355
57 1 4 0.0287 31.2635 30.8062 5.16877
58 1 4 0.0287 31.8881 29.3195 6.05391
59 1 5 -0.5988 29.9906 29.1799 5.31119
60 1 6 0.3960 29.4856 29.4292 4.51648
61 1 3 0.1167 9.91773 29.7624 38.3978
62 1 4 0.0287 9.85654 28.6953 38.1691
63 1 4 0.0287 10.7589 30.1462 37.8149
64 1 4 0.0287 10.1038 29.9449 39.4593
65 1 5 -0.5988 8.70204 30.3037 37.8818
66 1 6 0.3960 8.03132 30.2687 38.5872
67 1 3 0.1167 13.2401 20.9293 9.94373
68 1 4 0.0287 12.8856 20.1306 9.28715
69 1 4 0.0287 13.6957 21.7862 9.44088
70 1 4 0.0287 14.026 20.4458 10.5297
71 1 5 -0.5988 12.2816 21.3155 10.8768
72 1 6 0.3960 11.9895 20.5174 11.3525
73 1 3 0.1167 26.3875 35.0323 15.0605
74 1 4 0.0287 26.3434 35.6269 14.1445
75 1 4 0.0287 26.881 35.5946 15.8573
76 1 4 0.0287 25.4057 34.6941 15.4017
77 1 5 -0.5988 27.2942 33.9125 14.8736
78 1 6 0.3960 28.1551 34.2031 14.5227
79 1 3 0.1167 5.3311 12.8458 21.9015
80 1 4 0.0287 5.1078 11.9562 21.307
81 1 4 0.0287 6.47455 12.9776 21.9048
82 1 4 0.0287 4.9034 13.7372 21.4355
83 1 5 -0.5988 4.9258 12.7472 23.2829
84 1 6 0.3960 5.7005 13.0469 23.7916
85 1 3 0.1167 33.9963 27.6356 26.0635
86 1 4 0.0287 33.8632 26.5717 26.2762
87 1 4 0.0287 33.5972 27.8633 25.0718
88 1 4 0.0287 33.42 28.2128 26.7911
89 1 5 -0.5988 35.4108 27.9032 26.1536
90 1 6 0.3960 35.8535 27.8054 25.2916
91 1 3 0.1167 15.2887 26.4257 39.1772
92 1 4 0.0287 15.8523 25.7495 38.5293
93 1 4 0.0287 14.888 27.2971 38.6531
94 1 4 0.0287 14.3839 25.9135 39.5142
95 1 5 -0.5988 16.1685 26.9706 40.1675
96 1 6 0.3960 15.9179 27.9117 40.1843
97 1 3 0.1167 18.4087 19.8248 4.63701
98 1 4 0.0287 18.4421 19.083 3.83498
99 1 4 0.0287 17.3579 19.8894 4.93056
100 1 4 0.0287 19.006 19.4029 5.44939
101 1 5 -0.5988 18.9208 21.1356 4.26932
102 1 6 0.3960 18.4101 21.6924 3.65465
103 1 3 0.1167 7.89139 31.0112 31.2927
104 1 4 0.0287 7.39161 31.5812 32.08
105 1 4 0.0287 7.2151 30.3888 30.7011
106 1 4 0.0287 8.4937 31.6424 30.6343
107 1 5 -0.5988 8.83296 30.2051 31.8788
108 1 6 0.3960 8.38317 29.66 32.549
109 1 3 0.1167 21.2942 15.1093 5.48444
110 1 4 0.0287 22.0555 15.626 4.89436
111 1 4 0.0287 20.4391 15.7821 5.58815
112 1 4 0.0287 20.9953 14.2268 4.91296
113 1 5 -0.5988 21.8372 14.6784 6.72076
114 1 6 0.3960 22.5877 14.0691 6.6015
115 1 3 0.1167 40.5315 7.42641 0.1662
116 1 4 0.0287 39.7504 7.29397 40.5732
117 1 4 0.0287 40.0951 7.00099 1.0735
118 1 4 0.0287 0.2758 6.89326 41.0217
119 1 5 -0.5988 40.7772 8.789 0.2325
120 1 6 0.3960 40.6646 9.1558 1.1278
121 1 3 0.1167 33.7932 14.4301 18.0469
122 1 4 0.0287 33.25 15.2851 18.4574
123 1 4 0.0287 34.5691 14.1151 18.7492
124 1 4 0.0287 32.9944 13.6891 17.9597
125 1 5 -0.5988 34.5796 14.6786 16.8613
126 1 6 0.3960 35.4642 14.9863 17.1285
127 1 3 0.1167 8.88278 27.9899 27.1266
128 1 4 0.0287 8.00468 27.7652 27.7374
129 1 4 0.0287 8.56667 28.3686 26.1512
130 1 4 0.0287 9.40109 28.8288 27.5981
131 1 5 -0.5988 9.84246 26.889 27.1253
132 1 6 0.3960 10.3116 26.8855 27.9788
133 1 3 0.1167 24.0411 9.424 8.81966
134 1 4 0.0287 24.67 10.2879 8.59015
135 1 4 0.0287 23.1027 9.7116 9.30065
136 1 4 0.0287 24.664 8.7509 9.41434
137 1 5 -0.5988 23.8667 8.7706 7.58017
138 1 6 0.3960 24.6965 8.8551 7.07713
139 1 3 0.1167 8.86385 1.67415 8.73917
140 1 4 0.0287 8.8147 2.43147 9.52575
141 1 4 0.0287 9.65953 1.98675 8.05812
142 1 4 0.0287 9.01618 0.71062 9.23219
143 1 5 -0.5988 7.63288 1.73482 7.96172
144 1 6 0.3960 7.18393 2.59606 7.88821
145 1 3 0.1167 12.2916 24.9582 15.2387
146 1 4 0.0287 11.6465 25.3684 14.4575
147 1 4 0.0287 12.6633 25.8978 15.6555
148 1 4 0.0287 11.7326 24.4831 16.0489
149 1 5 -0.5988 13.3304 24.1564 14.7225
150 1 6 0.3960 13.0597 23.2214 14.7556
151 1 3 0.1167 12.3941 19.4196 28.7423
152 1 4 0.0287 11.6971 20.0714 28.2091
153 1 4 0.0287 13.268 19.9605 29.1142
154 1 4 0.0287 11.8094 19.138 29.6217
155 1 5 -0.5988 12.7048 18.1949 27.9204
156 1 6 0.3960 13.6136 18.3689 27.6161
157 1 3 0.1167 6.32611 27.6574 22.8791
158 1 4 0.0287 6.34206 28.3305 22.0182
159 1 4 0.0287 5.5823 26.8105 22.791
160 1 4 0.0287 7.29115 27.1735 23.0502
161 1 5 -0.5988 6.18064 28.3952 24.0637
162 1 6 0.3960 7.01756 28.8907 24.1153
163 1 3 0.1167 29.4445 4.91304 14.0914
164 1 4 0.0287 30.4463 4.57126 14.3641
165 1 4 0.0287 29.5582 5.99751 14.016
166 1 4 0.0287 29.0996 4.48668 13.146
167 1 5 -0.5988 28.5503 4.60437 15.229
168 1 6 0.3960 27.7419 5.07207 14.9525
169 1 3 0.1167 38.0763 5.83728 33.3271
170 1 4 0.0287 38.4837 5.12184 34.046
171 1 4 0.0287 37.3595 6.40171 33.9289
172 1 4 0.0287 38.8185 6.50745 32.8858
173 1 5 -0.5988 37.2994 5.17934 32.2435
174 1 6 0.3960 36.9692 5.82601 31.5943
175 1 3 0.1167 21.6997 32.1554 18.7195
176 1 4 0.0287 22.5593 31.5348 18.9853
177 1 4 0.0287 21.7996 33.1565 19.1468
178 1 4 0.0287 21.7008 32.2043 17.6276
179 1 5 -0.5988 20.4963 31.4907 19.0332
180 1 6 0.3960 20.4855 31.3853 20.0014
181 1 3 0.1167 33.1933 30.668 20.2929
182 1 4 0.0287 33.8206 31.5205 20.0203
183 1 4 0.0287 33.2442 30.3256 21.3297
184 1 4 0.0287 32.1584 30.963 20.1013
185 1 5 -0.5988 33.5438 29.5392 19.462
186 1 6 0.3960 33.7616 28.7613 20.0063
187 1 3 0.1167 10.3674 2.17508 24.2128
188 1 4 0.0287 10.8144 2.35585 25.1937
189 1 4 0.0287 9.29331 2.12241 24.408
190 1 4 0.0287 10.7642 1.2276 23.8392
191 1 5 -0.5988 10.6006 3.24783 23.2235
192 1 6 0.3960 10.2441 2.90395 22.3848
193 1 3 0.1167 15.4654 12.8252 14.7448
194 1 4 0.0287 15.4661 11.7394 14.6199
195 1 4 0.0287 15.0411 13.3361 13.8767
196 1 4 0.0287 14.9868 13.0065 15.7106
197 1 5 -0.5988 16.8329 13.3096 14.8412
198 1 6 0.3960 17.3116 12.6269 14.3378
199 1 3 0.1167 16.0026 20.1333 19.2371
200 1 4 0.0287 16.8849 20.0555 18.5967
201 1 4 0.0287 15.854 19.2389 19.8476
202 1 4 0.0287 16.2536 20.9516 19.9169
203 1 5 -0.5988 14.7864 20.5809 18.5194
204 1 6 0.3960 14.9771 21.1715 17.7688
205 1 3 0.1167 3.7642 19.8451 24.0938
206 1 4 0.0287 3.2627 19.2982 24.8964
207 1 4 0.0287 3.9364 20.8648 24.4477
208 1 4 0.0287 4.7352 19.3813 23.9021
209 1 5 -0.5988 3.0864 19.6641 22.8336
210 1 6 0.3960 2.1556 19.784 23.0945
211 1 3 0.1167 18.0743 1.83983 23.2588
212 1 4 0.0287 18.8858 2.56936 23.3212
213 1 4 0.0287 18.4794 0.95005 22.7701
214 1 4 0.0287 17.8212 1.6565 24.3062
215 1 5 -0.5988 16.9716 2.45467 22.6149
216 1 6 0.3960 17.2872 2.81396 21.7663
217 1 3 0.1167 20.2259 17.8206 12.5499
218 1 4 0.0287 21.1762 18.3442 12.6813
219 1 4 0.0287 20.2948 16.9257 11.9261
220 1 4 0.0287 19.9021 17.5466 13.5572
221 1 5 -0.5988 19.2906 18.9046 12.0459
222 1 6 0.3960 19.8782 19.5285 11.5831
223 1 3 0.1167 12.7878 22.8203 28.5969
224 1 4 0.0287 13.8479 23.0572 28.4755
225 1 4 0.0287 12.4339 22.1838 27.7818
226 1 4 0.0287 12.6193 22.3469 29.5676
227 1 5 -0.5988 12.0257 24.0368 28.5306
228 1 6 0.3960 11.1241 23.6941 28.3951
229 1 3 0.1167 21.6267 40.1578 17.9756
230 1 4 0.0287 22.0045 41.0124 17.4084
231 1 4 0.0287 21.7457 40.5347 18.9946
232 1 4 0.0287 20.6084 39.9727 17.6244
233 1 5 -0.5988 22.5746 39.0287 17.7521
234 1 6 0.3960 22.2548 38.1914 18.1335
235 1 3 0.1167 21.9801 10.7631 25.9646
236 1 4 0.0287 22.869 10.7275 26.5996
237 1 4 0.0287 22.3418 10.7228 24.9339
238 1 4 0.0287 21.2888 9.9428 26.1742
239 1 5 -0.5988 21.0194 11.8795 26.0313
240 1 6 0.3960 20.6878 12.2236 25.1825
241 1 3 0.1167 31.821 6.56446 26.9522
242 1 4 0.0287 32.3946 7.15717 27.6694
243 1 4 0.0287 32.2989 6.72358 25.9821
244 1 4 0.0287 31.8714 5.49524 27.1733
245 1 5 -0.5988 30.4526 6.93001 26.9142
246 1 6 0.3960 30.4801 7.77885 26.4373
247 1 3 0.1167 25.5524 12.7 37.7136
248 1 4 0.0287 25.5787 12.964 36.6533
249 1 4 0.0287 26.5682 12.7725 38.1104
250 1 4 0.0287 24.9971 13.4017 38.3413
251 1 5 -0.5988 24.9299 11.4075 37.7222
252 1 6 0.3960 25.555 10.7831 38.1322
253 1 3 0.1167 17.7497 21.1639 7.82302
254 1 4 0.0287 18.4294 21.6227 8.54556
255 1 4 0.0287 17.589 21.8009 6.94949
256 1 4 0.0287 18.197 20.2668 7.38739
257 1 5 -0.5988 16.5326 20.9264 8.42345
258 1 6 0.3960 16.7668 20.2946 9.12675
259 1 3 0.1167 9.99416 19.4575 36.4292
260 1 4 0.0287 10.1255 20.4402 36.8894
261 1 4 0.0287 8.93037 19.217 36.3571
262 1 4 0.0287 10.3393 19.4147 35.393
263 1 5 -0.5988 10.69 18.448 37.1617
264 1 6 0.3960 11.5815 18.3068 36.7957
265 1 3 0.1167 38.6718 30.0179 35.3744
266 1 4 0.0287 39.5578 30.5771 35.0628
267 1 4 0.0287 38.5045 29.1388 34.7469
268 1 4 0.0287 38.6258 29.6793 36.4126
269 1 5 -0.5988 37.4984 30.8085 35.3312
270 1 6 0.3960 37.2106 31.0044 34.4215
271 1 3 0.1167 21.966 18.9854 7.30819
272 1 4 0.0287 22.0369 18.9248 6.21917
273 1 4 0.0287 21.5054 18.0423 7.6133
274 1 4 0.0287 22.813 19.147 7.97985
275 1 5 -0.5988 21.0845 20.1208 7.55079
276 1 6 0.3960 21.1261 20.3537 8.49562
277 1 3 0.1167 13.1613 34.3038 8.4845
278 1 4 0.0287 13.2091 34.3514 7.39358
279 1 4 0.0287 14.2077 34.4799 8.74679
280 1 4 0.0287 12.4514 35.0285 8.89126
281 1 5 -0.5988 12.7601 32.9555 8.84398
282 1 6 0.3960 12.5698 32.8107 9.78818
283 1 3 0.1167 37.5411 1.29667 34.4303
284 1 4 0.0287 37.8801 1.75758 35.3615
285 1 4 0.0287 36.5803 0.78312 34.5193
286 1 4 0.0287 37.4386 2.07719 33.672
287 1 5 -0.5988 38.6465 0.44481 34.132
288 1 6 0.3960 38.3887 41.0929 33.3445
289 1 3 0.1167 10.612 26.9516 35.4883
290 1 4 0.0287 11.4101 27.1943 34.7821
291 1 4 0.0287 11.077 26.4912 36.3638
292 1 4 0.0287 9.98811 27.8252 35.6935
293 1 5 -0.5988 9.64247 26.0346 34.9515
294 1 6 0.3960 8.90824 26.044 35.5914
295 1 3 0.1167 11.6111 16.6636 31.3076
296 1 4 0.0287 12.1147 17.6253 31.4354
297 1 4 0.0287 11.6045 16.4009 30.2467
298 1 4 0.0287 12.1437 15.8366 31.7842
299 1 5 -0.5988 10.2431 16.7718 31.7471
300 1 6 0.3960 9.79335 15.9818 31.3973
301 1 3 0.1167 32.8873 11.9302 3.90146
302 1 4 0.0287 33.3994 12.8461 4.20712
303 1 4 0.0287 31.9133 12.2589 3.53019
304 1 4 0.0287 33.3685 11.5627 2.99149
305 1 5 -0.5988 32.9363 10.9731 5.01703
306 1 6 0.3960 32.8149 11.4434 5.86131
307 1 3 0.1167 35.0875 8.38475 9.43274
308 1 4 0.0287 34.5317 8.43806 8.49312
309 1 4 0.0287 34.7581 9.183 10.1027
310 1 4 0.0287 34.8429 7.4876 10.0072
311 1 5 -0.5988 36.421 8.5075 9.15835
312 1 6 0.3960 36.8597 8.5856 10.0244
313 1 3 0.1167 6.20383 22.0978 35.3068
314 1 4 0.0287 7.03017 21.4071 35.4933
315 1 4 0.0287 5.2242 21.5096 35.2934
316 1 4 0.0287 6.24495 22.9133 36.0333
317 1 5 -0.5988 6.28375 22.6768 34.0108
318 1 6 0.3960 7.24362 22.8376 33.9724
319 1 3 0.1167 19.1325 24.6864 2.5691
320 1 4 0.0287 18.5182 25.5435 2.2815
321 1 4 0.0287 20.1239 24.8234 2.1297
322 1 4 0.0287 19.1189 24.7574 3.71824
323 1 5 -0.5988 18.54 23.4882 2.064
324 1 6 0.3960 17.6435 23.7596 1.797
325 1 3 0.1167 17.0529 24.1262 30.2236
326 1 4 0.0287 16.9142 25.1959 30.4001
327 1 4 0.0287 16.0971 23.6219 30.0596
328 1 4 0.0287 17.6717 23.992 29.3327
329 1 5 -0.5988 17.7066 23.4943 31.3647
330 1 6 0.3960 17.0826 23.1766 32.0417
331 1 3 0.1167 27.4585 33.7533 10.2499
332 1 4 0.0287 26.8922 32.8483 10.0154
333 1 4 0.0287 27.3903 33.7811 11.3404
334 1 4 0.0287 28.4871 33.6133 9.90775
335 1 5 -0.5988 26.7807 34.7753 9.59778
336 1 6 0.3960 25.9002 34.8111 10.0128
337 1 3 0.1167 21.1716 2.09313 3.18253
338 1 4 0.0287 20.8795 2.21767 4.22838
339 1 4 0.0287 21.2924 3.09223 2.6976
340 1 4 0.0287 22.1442 1.60218 3.27059
341 1 5 -0.5988 20.1643 1.2861 2.4078
342 1 6 0.3960 19.63 0.90479 3.18588
343 1 3 0.1167 36.5154 24.6445 29.0041
344 1 4 0.0287 36.4141 24.6711 30.092
345 1 4 0.0287 37.2932 23.8897 28.8624
346 1 4 0.0287 35.5384 24.3516 28.6113
347 1 5 -0.5988 36.944 25.9245 28.5298
348 1 6 0.3960 36.2815 26.6322 28.6248
349 1 3 0.1167 19.6778 25.193 9.81471
350 1 4 0.0287 19.0159 26.0459 9.64421
351 1 4 0.0287 20.7507 25.3202 9.64953
352 1 4 0.0287 19.6802 24.8682 10.8583
353 1 5 -0.5988 19.18 24.1784 8.98456
354 1 6 0.3960 18.4244 23.7064 9.37835
355 1 3 0.1167 38.7705 23.9781 39.2594
356 1 4 0.0287 37.7597 24.2818 39.5436
357 1 4 0.0287 38.9913 24.2377 38.2209
358 1 4 0.0287 39.4109 24.4732 39.9938
359 1 5 -0.5988 39.0058 22.5712 39.3593
360 1 6 0.3960 38.6902 22.2589 40.2263
361 1 3 0.1167 19.9746 6.68993 40.7061
362 1 4 0.0287 20.0445 5.59945 40.681
363 1 4 0.0287 19.8627 6.92594 39.6447
364 1 4 0.0287 19.1001 6.96168 0.1428
365 1 5 -0.5988 21.1963 7.32225 0.0626
366 1 6 0.3960 21.0721 8.27164 0.2413
367 1 3 0.1167 28.0098 28.1907 33.6608
368 1 4 0.0287 27.0621 28.7274 33.7523
369 1 4 0.0287 27.9456 27.2022 33.1988
370 1 4 0.0287 28.6869 28.7825 33.0395
371 1 5 -0.5988 28.6222 27.9292 34.944
372 1 6 0.3960 29.5109 27.5553 34.8059
373 1 3 0.1167 34.0427 10.3457 25.7565
374 1 4 0.0287 33.5067 11.2358 26.0959
375 1 4 0.0287 34.0982 10.5343 24.6813
376 1 4 0.0287 35.0407 10.3561 26.202
377 1 5 -0.5988 33.4411 9.0361 26.0298
378 1 6 0.3960 32.6671 9.065 25.4392
379 1 3 0.1167 15.1925 29.8855 17.3274
380 1 4 0.0287 15.1244 29.1524 18.1352
381 1 4 0.0287 14.2102 30.3506 17.212
382 1 4 0.0287 16.0276 30.5794 17.4524
383 1 5 -0.5988 15.4222 29.0325 16.102
384 1 6 0.3960 16.3387 29.1243 15.7852
385 1 3 0.1167 33.8634 4.61939 21.6449
386 1 4 0.0287 33.388 4.3763 22.5985
387 1 4 0.0287 34.6994 5.30723 21.7954
388 1 4 0.0287 34.2129 3.6665 21.2392
389 1 5 -0.5988 32.801 5.18564 20.8724
390 1 6 0.3960 32.1524 4.46128 20.93
391 1 3 0.1167 26.8887 16.3457 32.8756
392 1 4 0.0287 26.4775 17.3541 32.7823
393 1 4 0.0287 26.3172 15.7217 32.1836
394 1 4 0.0287 27.9443 16.4128 32.6003
395 1 5 -0.5988 26.7431 15.9343 34.2583
396 1 6 0.3960 27.5015 16.2979 34.7496
397 1 3 0.1167 0.6065 9.2985 30.544
398 1 4 0.0287 1.5814 8.8872 30.8178
399 1 4 0.0287 0.152 8.36848 30.193
400 1 4 0.0287 0.0925 9.8367 31.3444
401 1 5 -0.5988 0.8499 10.1892 29.4364
402 1 6 0.3960 1.6193 9.8491 28.9453
403 1 3 0.1167 23.3094 20.7568 14.0601
404 1 4 0.0287 24.0534 20.0103 14.3495
405 1 4 0.0287 22.3344 20.2629 14.0657
406 1 4 0.0287 23.3585 21.6779 14.6464
407 1 5 -0.5988 23.5 21.1113 12.6841
408 1 6 0.3960 24.2796 21.6936 12.6408
409 1 3 0.1167 30.919 34.1765 24.6073
410 1 4 0.0287 31.7728 34.2873 23.9339
411 1 4 0.0287 30.7487 33.103 24.7227
412 1 4 0.0287 31.2106 34.5353 25.5977
413 1 5 -0.5988 29.6958 34.7398 24.1557
414 1 6 0.3960 29.9346 35.1585 23.3093
415 1 3 0.1167 18.4406 14.4589 2.1535
416 1 4 0.0287 17.9935 15.415 1.8695
417 1 4 0.0287 18.6216 14.4885 3.2895
418 1 4 0.0287 17.7409 13.6817 1.8356
419 1 5 -0.5988 19.6625 14.2753 1.5375
420 1 6 0.3960 20.3138 14.9069 1.892
421 1 3 0.1167 6.91777 21.0219 12.3473
422 1 4 0.0287 6.85204 21.9065 11.7088
423 1 4 0.0287 7.09616 21.2676 13.3973
424 1 4 0.0287 5.9419 20.431 12.2856
425 1 5 -0.5988 7.94802 20.1409 12.0385
426 1 6 0.3960 7.95576 19.5458 12.8095
427 1 3 0.1167 9.10812 6.39901 0.4753
428 1 4 0.0287 9.83683 5.58818 0.5541
429 1 4 0.0287 8.82787 6.71353 1.4839
430 1 4 0.0287 9.52362 7.30872 0.0344
431 1 5 -0.5988 7.97534 5.83861 40.9659
432 1 6 0.3960 7.60362 5.12536 0.3552
433 1 3 0.1167 7.09179 18.1585 34.3205
434 1 4 0.0287 7.61263 17.2153 34.137
435 1 4 0.0287 7.09667 18.3838 35.3901
436 1 4 0.0287 7.67392 18.8291 33.6832
437 1 5 -0.5988 5.692 17.9703 33.8157
438 1 6 0.3960 5.509 18.6937 33.1897
439 1 3 0.1167 35.4835 19.5112 13.5572
440 1 4 0.0287 34.4447 19.5238 13.897
441 1 4 0.0287 35.9551 18.7016 14.1199
442 1 4 0.0287 35.5462 19.3 12.4867
443 1 5 -0.5988 36.0368 20.7433 13.9406
444 1 6 0.3960 35.4325 21.4227 13.5914
445 1 3 0.1167 24.5553 22.6319 26.7272
446 1 4 0.0287 24.0407 22.0633 27.506
447 1 4 0.0287 25.5783 22.2677 26.6024
448 1 4 0.0287 24.0554 22.4102 25.7809
449 1 5 -0.5988 24.3642 24.0464 26.8961
450 1 6 0.3960 23.4159 24.1819 27.0724
451 1 3 0.1167 36.2601 22.2604 35.376
452 1 4 0.0287 35.3794 22.3287 36.0198
453 1 4 0.0287 36.533 23.2865 35.1166
454 1 4 0.0287 37.1377 21.756 35.7884
455 1 5 -0.5988 35.9722 21.6099 34.1802
456 1 6 0.3960 36.809 21.6466 33.6831
457 1 3 0.1167 21.1042 31.6125 31.1197
458 1 4 0.0287 21.969 30.9606 31.2671
459 1 4 0.0287 21.3387 32.5864 31.5569
460 1 4 0.0287 20.7841 31.6747 30.0764
461 1 5 -0.5988 20.0238 30.9046 31.7884
462 1 6 0.3960 20.0569 29.9414 31.6475
463 1 3 0.1167 36.8829 2.53376 22.0822
464 1 4 0.0287 35.8154 2.4828 22.3114
465 1 4 0.0287 37.4297 2.79227 22.9925
466 1 4 0.0287 37.223 1.58071 21.669
467 1 5 -0.5988 37.2248 3.60575 21.0975
468 1 6 0.3960 38.1977 3.62882 21.0569
469 1 3 0.1167 26.9391 38.0929 30.6818
470 1 4 0.0287 26.0958 37.5045 30.3112
471 1 4 0.0287 27.253 37.6336 31.6226
472 1 4 0.0287 27.7912 38.0366 29.9995
473 1 5 -0.5988 26.5981 39.4014 30.9572
474 1 6 0.3960 27.4308 39.901 31.2038
475 1 3 0.1167 24.1859 15.4693 15.959
476 1 4 0.0287 25.0271 15.9262 16.4865
477 1 4 0.0287 23.2416 15.9956 16.1207
478 1 4 0.0287 24.5246 15.6041 14.9286
479 1 5 -0.5988 23.8811 14.0732 16.228
480 1 6 0.3960 24.6774 13.5439 16.0424
481 1 3 0.1167 29.5856 30.8083 13.6096
482 1 4 0.0287 29.3889 30.9918 14.669
483 1 4 0.0287 30.4615 30.2287 13.3073
484 1 4 0.0287 28.7311 30.2014 13.2994
485 1 5 -0.5988 29.6021 31.9971 12.9566
486 1 6 0.3960 30.2307 32.6561 13.3017
487 1 3 0.1167 27.0291 31.623 17.8995
488 1 4 0.0287 27.7775 31.9208 18.6383
489 1 4 0.0287 26.8301 32.3675 17.1243
490 1 4 0.0287 27.4203 30.7626 17.3504
491 1 5 -0.5988 25.8037 31.2817 18.6593
492 1 6 0.3960 25.7837 30.4574 19.1776
493 1 3 0.1167 10.348 31.4573 34.9934
494 1 4 0.0287 10.6323 32.4726 35.2815
495 1 4 0.0287 10.3847 31.4813 33.9012
496 1 4 0.0287 10.9996 30.6875 35.4146
497 1 5 -0.5988 8.9604 31.07 35.2561
498 1 6 0.3960 8.97993 30.733 36.1697
499 1 3 0.1167 38.6569 34.8702 25.1905
500 1 4 0.0287 39.4851 35.4772 24.8158
501 1 4 0.0287 38.9779 33.8691 24.8917
502 1 4 0.0287 38.7256 34.9857 26.2752
503 1 5 -0.5988 37.4765 35.398 24.6109
504 1 6 0.3960 37.3679 34.9727 23.7414
505 1 3 0.1167 26.2646 6.01648 2.262
506 1 4 0.0287 26.2117 6.94254 1.6838
507 1 4 0.0287 25.856 6.10709 3.33016
508 1 4 0.0287 25.5949 5.26438 1.8371
509 1 5 -0.5988 27.5728 5.49953 2.3529
510 1 6 0.3960 27.5933 4.54967 2.5675
511 1 3 0.1167 9.16816 16.8786 28.229
512 1 4 0.0287 9.9385 17.6527 28.2735
513 1 4 0.0287 8.91851 16.4901 29.2197
514 1 4 0.0287 8.22362 17.1806 27.7693
515 1 5 -0.5988 9.74758 15.776 27.5442
516 1 6 0.3960 10.1117 16.1539 26.7236
517 1 3 0.1167 12.95 14.8787 26.8499
518 1 4 0.0287 13.0665 15.9449 26.6394
519 1 4 0.0287 11.8852 14.7432 26.6433
520 1 4 0.0287 13.4568 14.1657 26.1947
521 1 5 -0.5988 13.145 14.576 28.1914
522 1 6 0.3960 12.5795 15.1039 28.7831
523 1 3 0.1167 39.7247 12.5567 23.5457
524 1 4 0.0287 39.7058 11.7075 24.2336
525 1 4 0.0287 40.2424 12.3017 22.6175
526 1 4 0.0287 38.7053 12.9243 23.4027
527 1 5 -0.5988 40.4724 13.6222 24.1377
528 1 6 0.3960 0.2484 13.4344 23.9441
529 1 3 0.1167 25.6343 40.7447 15.96
530 1 4 0.0287 26.3321 40.1311 16.5355
531 1 4 0.0287 25.4495 40.2094 15.0251
532 1 4 0.0287 24.733 40.9315 16.5494
533 1 5 -0.5988 26.3079 0.81606 15.6541
534 1 6 0.3960 27.1555 0.60641 15.2224
535 1 3 0.1167 20.7465 22.7602 32.5485
536 1 4 0.0287 19.8654 22.219 32.9025
537 1 4 0.0287 20.767 23.6934 33.1173
538 1 4 0.0287 21.6765 22.2127 32.7215
539 1 5 -0.5988 20.5475 23.1716 31.1598
540 1 6 0.3960 19.5903 23.351 31.1714
541 1 3 0.1167 22.445 25.6647 30.0769
542 1 4 0.0287 22.0627 26.5907 30.514
543 1 4 0.0287 21.5946 25.1439 29.6295
544 1 4 0.0287 23.1114 25.8557 29.2319
545 1 5 -0.5988 23.1947 24.8202 30.9019
546 1 6 0.3960 22.6985 23.9875 30.8071
547 1 3 0.1167 3.4657 26.8116 10.9535
548 1 4 0.0287 2.7267 26.6656 11.7454
549 1 4 0.0287 2.8845 27.0358 10.0554
550 1 4 0.0287 4.1343 27.6345 11.2192
551 1 5 -0.5988 4.2222 25.6146 11.0818
552 1 6 0.3960 4.9761 25.6621 10.4669
553 1 3 0.1167 8.38807 24.4721 10.8476
554 1 4 0.0287 7.49306 25.0168 11.1589
555 1 4 0.0287 8.17709 23.4747 11.2417
556 1 4 0.0287 9.36074 24.8946 11.1122
557 1 5 -0.5988 8.38181 24.3873 9.44163
558 1 6 0.3960 8.93258 23.6623 9.09563
559 1 3 0.1167 11.2173 33.5187 41.1419
560 1 4 0.0287 10.8625 32.7122 0.6287
561 1 4 0.0287 11.5807 33.2883 40.1372
562 1 4 0.0287 12.0156 34.0453 0.5111
563 1 5 -0.5988 10.1022 34.3704 0.0049
564 1 6 0.3960 10.4403 35.0591 40.5648
565 1 3 0.1167 6.80843 27.6083 8.82177
566 1 4 0.0287 6.11115 28.4267 9.01845
567 1 4 0.0287 7.72579 27.7544 9.39776
568 1 4 0.0287 7.08688 27.7328 7.77218
569 1 5 -0.5988 6.23368 26.3517 9.14351
570 1 6 0.3960 7.00557 25.8211 8.87634
571 1 3 0.1167 2.2089 17.5312 30.0914
572 1 4 0.0287 2.4326 17.2774 29.052
573 1 4 0.0287 2.9894 17.2046 30.7833
574 1 4 0.0287 1.3195 16.999 30.4385
575 1 5 -0.5988 1.8668 18.9106 30.2225
576 1 6 0.3960 1.0221 19.0041 29.7467
577 1 3 0.1167 36.8751 24.7274 4.04642
578 1 4 0.0287 36.2235 25.5073 4.44889
579 1 4 0.0287 37.5397 25.0875 3.25696
580 1 4 0.0287 36.2868 23.9665 3.5272
581 1 5 -0.5988 37.6728 24.233 5.10341
582 1 6 0.3960 37.9131 24.9004 5.77095
583 1 3 0.1167 19.7182 11.4864 13.512
584 1 4 0.0287 19.9353 12.5556 13.5778
585 1 4 0.0287 20.2053 11.0327 14.3789
586 1 4 0.0287 20.2805 11.1026 12.6569
587 1 5 -0.5988 18.288 11.209 13.3331
588 1 6 0.3960 18.1121 10.2591 13.4574
589 1 3 0.1167 6.0676 34.1079 32.7576
590 1 4 0.0287 6.7409 33.6726 33.5005
591 1 4 0.0287 6.53066 34.5888 31.8921
592 1 4 0.0287 5.4104 34.924 33.1701
593 1 5 -0.5988 5.036 33.0532 32.4895
594 1 6 0.3960 5.2748 32.7065 31.6111
595 1 3 0.1167 36.5843 27.8771 36.5478
596 1 4 0.0287 37.1593 28.1034 35.6463
597 1 4 0.0287 35.8044 27.2067 36.1776
598 1 4 0.0287 36.1154 28.744 37.0204
599 1 5 -0.5988 37.3863 27.3042 37.5736
600 1 6 0.3960 36.8048 27.0978 38.3272
601 1 3 0.1167 2.7015 0.73064 32.8337
602 1 4 0.0287 1.6365 0.57418 33.0236
603 1 4 0.0287 3.2203 40.9347 32.7256
604 1 4 0.0287 3.0145 1.14337 33.7961
605 1 5 -0.5988 3.0555 1.60634 31.7635
606 1 6 0.3960 4.0141 1.4381 31.7241
607 1 3 0.1167 22.8804 5.78927 36.5421
608 1 4 0.0287 23.0393 6.86922 36.598
609 1 4 0.0287 22.8121 5.4055 37.5632
610 1 4 0.0287 23.7726 5.39676 36.0476
611 1 5 -0.5988 21.6618 5.51951 35.7876
612 1 6 0.3960 21.5161 4.57982 35.5768
613 1 3 0.1167 36.1231 40.8536 4.16164
614 1 4 0.0287 36.2945 39.9132 4.69165
615 1 4 0.0287 36.9691 40.9247 3.4733
616 1 4 0.0287 36.0807 0.47048 4.92935
617 1 5 -0.5988 34.9642 40.7382 3.4351
618 1 6 0.3960 35.2032 39.9991 2.84748
619 1 3 0.1167 21.1619 32.7659 24.4641
620 1 4 0.0287 20.222 32.2309 24.3061
621 1 4 0.0287 21.2699 33.3704 25.3683
622 1 4 0.0287 21.232 33.4809 23.6403
623 1 5 -0.5988 22.2612 31.8732 24.3653
624 1 6 0.3960 22.99 32.4739 24.1271
625 1 3 0.1167 5.4609 16.0937 12.4774
626 1 4 0.0287 5.7158 15.1193 12.0529
627 1 4 0.0287 6.44629 16.6726 12.4608
628 1 4 0.0287 5.0787 15.951 13.4914
629 1 5 -0.5988 4.487 16.6591 11.5893
630 1 6 0.3960 4.9852 16.6721 10.7524
631 1 3 0.1167 1.7198 17.4041 9.97275
632 1 4 0.0287 2.4308 16.6646 9.59568
633 1 4 0.0287 1.6589 18.2324 9.26227
634 1 4 0.0287 2.0028 17.7757 10.9609
635 1 5 -0.5988 0.4597 16.6845 10.087
636 1 6 0.3960 0.5556 16.0992 10.8596
637 1 3 0.1167 30.2506 9.9042 29.0975
638 1 4 0.0287 31.2771 10.2677 29.0032
639 1 4 0.0287 29.8543 9.9929 30.1123
640 1 4 0.0287 30.1563 8.8909 28.6987
641 1 5 -0.5988 29.4505 10.8261 28.356
642 1 6 0.3960 29.7156 11.7127 28.6599
643 1 3 0.1167 15.9706 13.348 10.7442
644 1 4 0.0287 15.1885 13.038 11.442
645 1 4 0.0287 16.1611 12.5624 10.0085
646 1 4 0.0287 16.9508 13.5848 11.166
647 1 5 -0.5988 15.3767 14.4204 10.0485
648 1 6 0.3960 15.9305 14.5831 9.26396
649 1 3 0.1167 34.6136 3.41796 13.0097
650 1 4 0.0287 35.4352 3.47594 12.2912
651 1 4 0.0287 34.886 2.56461 13.636
652 1 4 0.0287 33.7888 3.3036 12.3016
653 1 5 -0.5988 34.3817 4.61186 13.7337
654 1 6 0.3960 33.8178 4.43126 14.507
655 1 3 0.1167 2.1249 13.0011 37.7156
656 1 4 0.0287 1.3079 13.3797 37.0959
657 1 4 0.0287 2.0915 13.4086 38.7292
658 1 4 0.0287 3.0845 13.2035 37.2331
659 1 5 -0.5988 2.0344 11.6153 37.7831
660 1 6 0.3960 1.2219 11.3517 38.2512
661 1 3 0.1167 38.1821 19.3227 34.464
662 1 4 0.0287 37.2125 19.4775 34.9443
663 1 4 0.0287 38.1995 18.4434 33.8151
664 1 4 0.0287 38.9302 19.1178 35.2342
665 1 5 -0.5988 38.5786 20.417 33.6169
666 1 6 0.3960 39.5205 20.3137 33.3913
667 1 3 0.1167 29.8053 36.9315 10.7008
668 1 4 0.0287 30.1169 35.8864 10.7735
669 1 4 0.0287 30.6445 37.527 10.332
670 1 4 0.0287 29.6767 37.3 11.7217
671 1 5 -0.5988 28.5799 37.0444 9.9139
672 1 6 0.3960 28.2172 36.1488 9.79174
673 1 3 0.1167 32.1381 16.1047 14.9175
674 1 4 0.0287 32.4533 17.052 14.4726
675 1 4 0.0287 32.4741 16.0815 15.9573
676 1 4 0.0287 31.0467 16.0665 14.8739
677 1 5 -0.5988 32.7088 15.129 14.1592
678 1 6 0.3960 32.724 14.3211 14.703
679 1 3 0.1167 3.0079 9.8498 10.7032
680 1 4 0.0287 3.166 8.7799 10.8612
681 1 4 0.0287 1.9601 10.0975 10.8915
682 1 4 0.0287 3.6394 10.4324 11.3787
683 1 5 -0.5988 3.5233 9.9903 9.39096
684 1 6 0.3960 4.4798 9.808 9.4145
685 1 3 0.1167 14.3995 21.5594 0.7729
686 1 4 0.0287 13.8864 22.2994 0.1534
687 1 4 0.0287 14.5114 20.6026 0.2565
688 1 4 0.0287 15.3568 22.0009 1.0616
689 1 5 -0.5988 13.5253 21.3027 1.9373
690 1 6 0.3960 13.8673 21.6313 2.8465
691 1 3 0.1167 8.2883 7.86024 13.3112
692 1 4 0.0287 7.59518 8.6886 13.1435
693 1 4 0.0287 9.19576 8.45201 13.4561
694 1 4 0.0287 8.08355 7.27517 14.2114
695 1 5 -0.5988 8.37737 7.03417 12.1254
696 1 6 0.3960 9.10557 6.38805 12.1562
697 1 3 0.1167 37.9383 12.9943 16.9785
698 1 4 0.0287 38.814 13.1246 17.6194
699 1 4 0.0287 37.041 12.9802 17.6025
700 1 4 0.0287 37.8069 13.8462 16.3064
701 1 5 -0.5988 37.9397 11.794 16.2323
702 1 6 0.3960 38.5772 11.9502 15.5127
703 1 3 0.1167 10.7199 18.9332 25.1776
704 1 4 0.0287 11.1733 19.8959 25.4274
705 1 4 0.0287 9.80917 18.6951 25.7331
706 1 4 0.0287 10.5475 19.0107 24.1011
707 1 5 -0.5988 11.6459 17.893 25.4147
708 1 6 0.3960 12.0481 18.0957 26.2783
709 1 3 0.1167 16.9263 16.6941 14.074
710 1 4 0.0287 15.8712 16.6448 13.7929
711 1 4 0.0287 17.5393 16.0341 13.4549
712 1 4 0.0287 17.25 17.7079 13.8246
713 1 5 -0.5988 16.9083 16.429 15.471
714 1 6 0.3960 16.6682 15.4859 15.5112
715 1 3 0.1167 2.2851 13.1521 29.6034
716 1 4 0.0287 3.0092 13.6441 30.2578
717 1 4 0.0287 2.3438 13.64 28.6271
718 1 4 0.0287 2.4146 12.0669 29.5874
719 1 5 -0.5988 0.978 13.4541 30.2038
720 1 6 0.3960 1.0564 13.1101 31.1117
721 1 3 0.1167 26.1709 29.4947 11.4695
722 1 4 0.0287 25.8889 28.5665 11.973
723 1 4 0.0287 25.2574 29.9676 11.1001
724 1 4 0.0287 26.7991 30.1141 12.1148
725 1 5 -0.5988 26.977 29.1871 10.3204
726 1 6 0.3960 27.6678 29.8702 10.2513
727 1 3 0.1167 36.7825 30.4479 20.6793
728 1 4 0.0287 36.4697 30.1012 21.6676
729 1 4 0.0287 36.1536 29.9809 19.9171
730 1 4 0.0287 36.7924 31.5406 20.6525
731 1 5 -0.5988 38.1498 29.9447 20.4405
732 1 6 0.3960 38.3973 30.0542 19.5049
733 1 3 0.1167 1.0788 30.453 29.9938
734 1 4 0.0287 1.3907 31.2165 29.2766
735 1 4 0.0287 1.9576 29.8312 30.1829
736 1 4 0.0287 0.2648 29.8805 29.5418
737 1 5 -0.5988 0.5721 31.1051 31.2149
738 1 6 0.3960 0.7453 30.5027 31.9605
739 1 3 0.1167 24.2387 12.9253 3.47575
740 1 4 0.0287 24.9563 12.6984 4.26832
741 1 4 0.0287 23.7043 13.8238 3.79488
742 1 4 0.0287 24.7556 12.9868 2.4562
743 1 5 -0.5988 23.3683 11.8206 3.37953
744 1 6 0.3960 22.8686 11.8841 2.4874
745 1 3 0.1167 19.0907 25.6695 15.1168
746 1 4 0.0287 18.2464 25.5472 15.8
747 1 4 0.0287 20.0602 25.7604 15.6134
748 1 4 0.0287 19.0627 24.8759 14.3657
749 1 5 -0.5988 18.797 26.8564 14.3723
750 1 6 0.3960 19.4505 26.8667 13.6502
751 1 3 0.1167 18.3374 28.6427 36.2802
752 1 4 0.0287 18.9305 27.8713 36.7781
753 1 4 0.0287 17.273 28.4425 36.4271
754 1 4 0.0287 18.706 29.5227 36.8134
755 1 5 -0.5988 18.6485 28.7543 34.8655
756 1 6 0.3960 18.9287 29.6787 34.7402
757 1 3 0.1167 2.519 30.7575 17.4842
758 1 4 0.0287 2.5145 30.9521 16.4087
759 1 4 0.0287 1.5883 31.145 17.9064
760 1 4 0.0287 2.7492 29.7027 17.6543
761 1 5 -0.5988 3.6417 31.4295 18.157
762 1 6 0.3960 3.5063 32.3749 17.9659
763 1 3 0.1167 23.7388 10.632 16.9576
764 1 4 0.0287 22.9132 11.204 17.3888
765 1 4 0.0287 23.7826 10.9219 15.9047
766 1 4 0.0287 24.6525 10.8749 17.5061
767 1 5 -0.5988 23.4989 9.2318 17.1926